ITEM: TIMESTEP
120000000
ITEM: NUMBER OF ATOMS
336
ITEM: BOX BOUNDS pp pp pp
0.0000000000000000e+00 1.6167135238600000e+01
0.0000000000000000e+00 1.8668199539200000e+01
0.0000000000000000e+00 2.5747400283800001e+01
ITEM: ATOMS id type x y z
117 3 1.80098 2.67392 0.911571
141 3 4.53154 2.57392 0.956694
145 3 3.20257 1.82858 3.05782
165 3 4.5084 4.15226 3.07151
173 3 1.79277 4.22254 2.97464
169 3 0.465855 1.88061 3.02843
97 3 0.452819 0.394626 0.91365
138 3 3.20846 0.287003 0.984148
213 3 1.85112 2.65104 5.14565
237 3 4.50048 2.60337 5.23092
193 3 0.455127 0.336131 5.16038
234 3 3.1135 0.306289 5.25229
261 3 4.51497 4.15498 7.32213
269 3 1.75552 4.17456 7.29741
267 3 0.437781 1.85511 7.33537
241 3 3.04854 1.93879 7.35972
333 3 4.46883 2.59994 9.49881
309 3 1.8107 2.69938 9.46503
290 3 0.493989 0.324305 9.26839
330 3 3.21237 0.199368 9.49694
89 2 5.3008 4.281 12.7973
55 1 3.41501 3.29303 13.2115
91 2 2.88532 2.70693 12.6694
38 1 5.19402 3.7176 11.8241
51 1 3.32835 2.75208 11.8075
28 1 0.27955 0.692707 12.9066
4 1 2.40046 0.805596 12.7124
13 1 0.568837 4.39665 12.601
105 3 4.46475 7.33224 0.964352
133 3 1.95366 7.21357 0.881283
177 3 3.21626 6.55936 3.02113
161 3 1.83416 8.87246 2.96086
181 3 4.51082 8.82905 3.00541
157 3 0.479386 6.51243 2.92463
129 3 0.39887 4.90538 0.883624
101 3 3.09695 4.8671 0.978999
201 3 4.48289 7.34613 5.2184
229 3 1.75699 7.31803 5.17088
197 3 3.08842 4.9515 5.13684
225 3 0.460954 4.99139 5.1087
257 3 1.84188 8.78221 7.32304
277 3 4.46253 8.82014 7.27816
273 3 3.14578 6.55079 7.30482
255 3 0.43493 6.51494 7.39872
325 3 1.84505 7.30083 9.39361
297 3 4.47432 7.34605 9.47409
293 3 3.12415 4.97885 9.36663
321 3 0.460017 4.96113 9.38596
65 2 5.29613 8.85787 12.7252
26 1 2.09765 6.25696 12.9266
30 1 2.60198 5.62658 11.6727
1 1 5.2197 8.71141 11.7388
78 2 2.8623 5.8248 12.6779
73 2 1.00349 8.98639 12.7044
49 1 4.77614 5.01338 12.6268
17 1 1.35401 8.85731 11.829
118 3 1.78213 12.0728 0.817078
142 3 4.57454 12.0539 0.968496
146 3 3.18144 11.1778 2.99848
174 3 1.81437 13.4758 3.02993
166 3 4.49382 13.5124 3.00499
170 3 0.528036 11.0987 2.85621
137 3 3.14792 9.61638 0.935696
98 3 0.39649 9.56573 0.899528
214 3 1.79966 11.9468 5.09531
238 3 4.59608 11.8323 5.2099
233 3 3.11094 9.68151 5.18011
194 3 0.444395 9.57338 5.20709
270 3 1.71441 13.51 7.31345
268 3 0.492137 11.1425 7.25487
242 3 3.10508 11.1593 7.31337
262 3 4.53984 13.4646 7.25678
310 3 1.73976 11.9328 9.39906
334 3 4.45531 12.0478 9.4215
329 3 3.13869 9.58847 9.36425
289 3 0.48269 9.55147 9.30229
21 1 1.65572 9.51439 13.2997
53 1 4.81092 9.58915 12.8406
71 2 3.45437 11.0732 12.7542
62 1 5.24428 13.3908 11.6361
15 1 4.24918 11.8115 12.804
11 1 3.16372 11.2978 11.8
94 2 5.18334 13.2217 12.688
95 2 1.14944 13.7406 12.7596
5 1 0.0512456 12.6372 12.4849
58 1 4.96632 13.9885 13.0898
106 3 4.40938 16.6979 0.958917
134 3 1.82818 16.6894 0.955704
162 3 1.82677 18.1867 3.05562
178 3 3.11806 15.9303 3.05024
182 3 4.55611 18.2018 3.0386
158 3 0.542897 15.8574 3.03931
102 3 3.14387 14.2896 0.940814
130 3 0.525618 14.3494 0.956391
202 3 4.50415 16.6128 5.28689
230 3 1.8406 16.6978 5.16411
226 3 0.417866 14.2921 5.18992
198 3 3.10903 14.2748 5.19512
278 3 4.46072 18.1972 7.34463
256 3 0.485537 15.8332 7.24937
274 3 3.18676 15.8124 7.31602
258 3 1.83117 18.1648 7.39177
326 3 1.78207 16.6648 9.35806
298 3 4.48352 16.5446 9.45171
322 3 0.387799 14.2979 9.42087
294 3 3.09136 14.2175 9.39672
57 1 4.03589 16.398 12.062
61 1 4.23496 16.7493 13.4457
63 1 0.796877 14.521 13.2924
93 2 4.69301 16.2045 12.7957
9 1 1.48811 14.0179 12.0142
8 1 1.91027 17.8376 12.1185
68 2 2.02523 18.5667 12.8634
114 3 7.12037 2.68964 0.962473
135 3 9.72995 2.64702 1.02497
159 3 8.52465 1.80136 3.02901
189 3 7.10777 4.14859 3.15236
163 3 9.88766 4.17199 3.09497
186 3 5.92279 1.86541 3.09819
110 3 5.84743 0.239064 0.911862
131 3 8.62093 0.322072 0.917503
210 3 7.19348 2.62337 5.16128
231 3 9.89379 2.64721 5.21838
227 3 8.51354 0.283224 5.20964
206 3 5.79594 0.285934 5.23462
282 3 5.76189 1.91136 7.3648
286 3 7.21331 4.16467 7.3686
259 3 9.85288 4.22834 7.42898
254 3 8.59946 1.88528 7.42888
327 3 9.79108 2.68093 9.47629
306 3 7.10003 2.57047 9.47811
323 3 8.59485 0.346747 9.41531
302 3 5.77019 0.368756 9.49694
27 1 8.3251 1.20396 11.9397
60 1 7.11609 2.95191 13.1716
96 2 7.78964 2.73037 12.5079
64 1 7.39715 3.15419 11.6311
79 2 8.561 0.287611 11.6034
23 1 8.67787 4.48998 13.074
59 1 10.598 0.238225 12.2626
120 3 9.81627 7.21371 0.995437
125 3 7.21329 7.26359 1.0053
153 3 7.16722 8.86618 3.07654
172 3 8.49241 6.58093 3.17964
176 3 9.89024 8.76754 3.1485
149 3 5.8363 6.54612 3.12055
100 3 8.48816 4.90799 1.09914
121 3 5.75696 4.85289 1.03934
216 3 10.0085 7.2497 5.32001
221 3 7.17395 7.24953 5.27977
196 3 8.44528 4.95757 5.20504
217 3 5.80862 5.01848 5.28494
249 3 7.11082 8.81804 7.4065
272 3 9.95291 8.78112 7.41649
245 3 5.84927 6.51024 7.42767
265 3 8.48272 6.53131 7.37672
317 3 7.23883 7.2621 9.54452
312 3 9.8079 7.14383 9.51189
291 3 8.55544 4.8877 9.49381
313 3 5.87028 4.83181 9.53306
83 2 7.61873 7.22734 12.3149
19 1 8.6732 6.0557 13.3498
35 1 6.76957 7.56985 12.8851
39 1 8.45681 7.76877 12.1038
75 2 9.17629 5.25133 13.4983
16 1 10.5597 4.83274 12.1118
113 3 7.30352 11.9361 0.974709
136 3 9.85649 11.9553 1.0138
160 3 8.60035 11.1221 3.17611
190 3 7.175 13.5181 3.04615
164 3 9.87261 13.4929 3.06057
185 3 5.87413 11.1865 2.93609
132 3 8.58096 9.58473 1.01569
109 3 5.95592 9.53969 0.999468
209 3 7.20124 11.9018 5.18689
232 3 9.92578 11.8809 5.31465
205 3 5.93059 9.59886 5.19484
228 3 8.50763 9.61383 5.23168
260 3 9.88882 13.524 7.36254
253 3 8.48742 11.1407 7.3589
281 3 5.854 11.15 7.36083
285 3 7.17422 13.5407 7.3579
328 3 9.9435 11.9382 9.4115
305 3 7.2962 12.0306 9.44776
301 3 5.84215 9.61168 9.42233
324 3 8.47467 9.58137 9.38955
14 1 8.21443 10.2102 13.2264
70 2 8.83587 10.0117 12.4504
10 1 8.47598 10.5915 11.7585
36 1 10.3458 9.54475 12.0455
25 1 8.05245 13.5399 13.711
90 2 7.14654 11.2025 14.2154
50 1 6.36826 11.6392 13.9268
52 1 8.33488 13.5948 12.0317
54 1 6.73603 10.5524 14.7904
119 3 9.95574 16.6639 1.04506
126 3 7.27584 16.5855 0.962543
154 3 7.18544 18.238 3.11075
171 3 8.53716 15.8453 2.99422
175 3 9.87635 18.2035 3.0518
150 3 5.84804 15.8964 3.05687
99 3 8.56505 14.2442 0.95564
122 3 5.95248 14.4504 0.957081
215 3 9.97549 16.5964 5.2182
222 3 7.2106 16.6853 5.15951
195 3 8.55338 14.3197 5.12265
218 3 5.87459 14.397 5.1694
271 3 9.85913 18.1957 7.32639
246 3 5.82578 15.8956 7.33905
266 3 8.61778 15.8726 7.39854
250 3 7.13775 18.1974 7.42891
318 3 7.22322 16.6372 9.49372
311 3 9.82598 16.6505 9.44976
314 3 5.83866 14.3307 9.37054
292 3 8.57015 14.2307 9.44721
43 1 6.17619 16.7107 12.2033
47 1 7.66296 16.1009 12.3558
87 2 7.19414 16.8622 12.0269
31 1 7.91514 18.2456 11.9437
77 2 8.55624 14.0972 12.8374
20 1 10.5141 14.1238 12.1863
107 3 12.5402 2.74693 0.933429
127 3 15.2596 2.60239 0.94368
151 3 13.8726 1.82619 2.95652
155 3 15.2397 4.21476 3.04422
183 3 12.5153 4.21737 3.0789
179 3 11.2024 1.81279 3.06294
123 3 13.9188 0.375165 0.871561
103 3 11.3051 0.28724 0.965671
203 3 12.5609 2.59369 5.15457
223 3 15.3474 2.63914 5.13433
219 3 13.9557 0.331743 5.2533
199 3 11.2648 0.267187 5.27013
251 3 15.3376 4.13548 7.28683
247 3 13.9821 1.91706 7.32008
275 3 11.2386 1.85424 7.35743
279 3 12.5607 4.11559 7.39526
299 3 12.6717 2.58514 9.49186
319 3 15.2011 2.61454 9.48508
315 3 14.0621 0.229914 9.50587
295 3 11.2587 0.268914 9.4143
85 2 12.4092 2.4427 11.9451
45 1 13.1959 2.57001 12.5547
41 1 12.2988 1.57641 11.8266
12 1 11.7015 3.80411 11.9362
66 2 14.2574 2.72055 13.6548
2 1 14.9265 2.01324 13.2579
80 2 15.527 0.736618 12.558
6 1 14.8365 3.4318 13.5971
32 1 15.5083 1.01816 11.6045
29 1 15.4362 4.13776 11.9699
67 2 11.3705 0.0557089 11.7644
115 3 15.2007 7.22617 0.959089
144 3 12.6094 7.22687 0.966219
187 3 13.9402 6.4496 3.01821
192 3 15.3828 8.84057 3.02521
168 3 12.6852 8.88374 3.07957
148 3 11.2248 6.4779 3.03138
139 3 11.1371 4.93922 1.02048
111 3 13.9255 4.88307 0.92313
211 3 15.1879 7.27321 5.20239
240 3 12.5836 7.27786 5.16692
235 3 11.2435 4.98692 5.26793
207 3 13.9105 4.8773 5.18506
287 3 15.3432 8.90658 7.29973
283 3 13.9497 6.42767 7.32544
244 3 11.2445 6.51989 7.4065
264 3 12.6148 8.89724 7.37414
307 3 15.2942 7.23665 9.42302
336 3 12.6098 7.23974 9.49871
303 3 13.9241 4.84774 9.37781
331 3 11.1798 4.9042 9.40743
81 2 12.5705 7.09085 11.7834
33 1 13.5551 7.14689 12.0026
37 1 12.2932 6.16694 12.1213
7 1 11.6804 8.6975 12.1142
18 1 15.4875 6.25032 12.2479
72 2 11.4608 4.7467 11.6947
74 2 15.3779 7.22631 11.8136
22 1 16.0085 7.80537 12.284
69 2 15.8504 4.67691 12.652
108 3 12.5444 12.0432 0.936136
128 3 15.3643 12.0886 0.848885
152 3 13.9378 11.2416 2.93261
156 3 15.2318 13.498 3.06716
184 3 12.6294 13.5704 3.02274
180 3 11.2885 11.0906 3.0182
104 3 11.1774 9.48897 0.989438
124 3 13.9044 9.51427 0.945141
204 3 12.594 11.9848 5.192
224 3 15.2294 11.9399 5.09633
200 3 11.2005 9.57004 5.21456
220 3 13.988 9.6976 5.23715
276 3 11.2355 11.1315 7.34918
252 3 15.2922 13.4545 7.27151
248 3 13.9484 11.1311 7.41442
280 3 12.5274 13.4858 7.37349
320 3 15.3658 11.9225 9.4377
300 3 12.5431 11.9626 9.46828
316 3 14.0035 9.55183 9.3706
296 3 11.2208 9.65932 9.44274
86 2 12.7778 11.8482 11.75
82 2 15.3927 11.8423 12.4104
42 1 13.6463 11.8852 12.0489
34 1 15.8815 11.1085 12.6225
24 1 11.7891 13.1845 12.0573
46 1 12.1943 11.0105 11.961
84 2 11.2748 9.61325 11.8652
116 3 15.318 16.7027 0.945784
143 3 12.6895 16.5567 0.916428
167 3 12.5364 18.0944 3.01968
188 3 13.8893 15.8632 3.13328
191 3 15.3034 18.1905 3.00684
147 3 11.3203 15.8416 2.9799
112 3 13.9639 14.31 1.05579
140 3 11.2358 14.3206 0.998004
212 3 15.2217 16.6699 5.23506
239 3 12.5802 16.5913 5.28549
208 3 13.9205 14.278 5.26719
236 3 11.1592 14.3346 5.25017
284 3 13.9567 15.7982 7.32123
288 3 15.2199 18.2075 7.35424
243 3 11.2962 15.8131 7.41657
263 3 12.5396 18.1784 7.38847
335 3 12.7349 16.5356 9.43641
308 3 15.3284 16.523 9.39734
304 3 14.0269 14.2713 9.44225
332 3 11.1976 14.3603 9.52149
88 2 12.7653 16.3383 11.9744
44 1 13.7558 16.2568 12.2164
48 1 12.5347 15.3786 12.3561
56 1 15.9086 15.7735 11.6177
3 1 11.5724 17.7217 11.936
92 2 15.6014 16.0081 12.555
40 1 15.6687 17.0057 12.7035
76 2 11.464 14.1169 11.7964
