ITEM: TIMESTEP
120000000
ITEM: NUMBER OF ATOMS
336
ITEM: BOX BOUNDS pp pp pp
0.0000000000000000e+00 1.6167135238600000e+01
0.0000000000000000e+00 1.8668199539200000e+01
0.0000000000000000e+00 2.5747400283800001e+01
ITEM: ATOMS id type x y z
117 3 1.80189 2.6597 0.918439
141 3 4.52326 2.56437 0.992505
145 3 3.22937 1.81871 3.06389
165 3 4.48724 4.13416 3.06854
173 3 1.78288 4.19069 2.97642
169 3 0.463876 1.83995 3.06043
97 3 0.465103 0.406677 0.931804
138 3 3.24885 0.271247 0.980527
213 3 1.83928 2.66573 5.15434
237 3 4.48426 2.63135 5.21592
193 3 0.411843 0.319569 5.15392
234 3 3.11524 0.244824 5.23749
241 3 3.06267 1.89501 7.34854
269 3 1.78649 4.15509 7.30965
261 3 4.52472 4.14322 7.35621
267 3 0.435464 1.88234 7.32566
309 3 1.79402 2.69738 9.45465
333 3 4.48666 2.61609 9.528
290 3 0.488726 0.298959 9.3137
330 3 3.24045 0.220212 9.51018
89 2 5.29027 4.28706 12.8628
28 1 0.283854 0.586459 12.7267
55 1 3.58785 3.32533 13.2567
91 2 2.81181 2.72466 12.7174
4 1 2.36194 0.698257 12.6977
51 1 3.14235 2.77198 11.7327
38 1 5.24076 3.87691 11.9776
13 1 0.635311 4.65708 12.5586
105 3 4.47176 7.29927 1.00278
133 3 1.92551 7.25708 0.865116
177 3 3.22446 6.52953 3.01149
181 3 4.47892 8.84622 3.03374
161 3 1.8352 8.86246 3.00231
157 3 0.492333 6.51151 2.95425
129 3 0.408582 4.88277 0.890924
101 3 3.1201 4.90673 0.974314
201 3 4.48107 7.36238 5.17085
229 3 1.77866 7.3312 5.19102
197 3 3.10101 4.93543 5.14707
225 3 0.447054 4.99688 5.12453
257 3 1.86899 8.78828 7.34516
277 3 4.4699 8.80831 7.27035
273 3 3.17464 6.54268 7.26082
255 3 0.440776 6.51288 7.37759
325 3 1.84492 7.32018 9.41692
297 3 4.49241 7.38259 9.46917
293 3 3.14726 4.98262 9.35337
321 3 0.421211 4.95797 9.41188
30 1 2.49795 5.92617 11.7043
78 2 2.90843 5.83069 12.6139
65 2 5.33818 8.87095 12.7338
1 1 5.20916 8.76469 11.6744
26 1 2.34497 6.61049 12.9032
73 2 1.00261 9.00218 12.7158
17 1 1.40264 9.01244 11.8543
49 1 4.79653 5.05497 12.7146
118 3 1.79169 12.0852 0.796919
142 3 4.59017 12.0407 0.95303
146 3 3.17336 11.195 3.03198
174 3 1.79309 13.4906 3.05342
166 3 4.50202 13.5405 3.01607
170 3 0.547026 11.1339 2.88795
137 3 3.15268 9.63564 0.951084
98 3 0.380265 9.57606 0.915927
214 3 1.79797 11.951 5.10599
238 3 4.56937 11.8325 5.19055
233 3 3.11298 9.66422 5.19313
194 3 0.43496 9.60481 5.2071
270 3 1.76005 13.5268 7.32483
268 3 0.502731 11.1619 7.24584
242 3 3.11533 11.1808 7.33439
262 3 4.53099 13.4863 7.27088
310 3 1.7472 11.9057 9.43946
334 3 4.46805 12.0321 9.39165
329 3 3.13461 9.56 9.33874
289 3 0.507256 9.57284 9.30899
15 1 4.00687 11.8232 13.005
94 2 5.1561 13.16 12.6873
53 1 4.86454 9.66757 12.7961
11 1 3.25069 11.1919 11.7887
21 1 1.57471 9.46948 13.2707
71 2 3.49124 10.9895 12.7235
95 2 1.13143 13.8081 12.816
58 1 4.95735 13.9646 13.1389
106 3 4.4154 16.6851 0.956099
134 3 1.81282 16.7207 0.929306
162 3 1.81717 18.2094 3.0362
178 3 3.1259 15.9209 3.07408
182 3 4.56562 18.191 3.03423
158 3 0.540937 15.8703 3.03175
102 3 3.12766 14.2732 0.946505
130 3 0.541289 14.3386 0.919786
202 3 4.48045 16.5967 5.27183
230 3 1.83016 16.7376 5.16873
226 3 0.395561 14.3109 5.20254
198 3 3.13648 14.2761 5.203
278 3 4.44904 18.1842 7.34244
256 3 0.462652 15.8074 7.26856
274 3 3.18365 15.8159 7.33498
258 3 1.83818 18.1876 7.4069
326 3 1.80126 16.6356 9.3685
298 3 4.47752 16.561 9.46186
294 3 3.08197 14.2247 9.39541
322 3 0.391361 14.2792 9.41389
93 2 4.63554 16.1524 12.7951
61 1 4.17852 16.6437 13.4425
63 1 0.774127 14.5557 13.2361
57 1 4.11057 16.3942 11.9782
9 1 1.48165 14.192 11.9334
8 1 2.14645 17.981 12.0125
68 2 2.09119 18.5102 12.831
114 3 7.13399 2.64638 0.972524
135 3 9.75198 2.63906 1.00515
159 3 8.51839 1.8558 3.02788
189 3 7.1278 4.15061 3.15086
163 3 9.90933 4.17818 3.07895
186 3 5.87528 1.87168 3.09012
110 3 5.84004 0.255723 0.910504
131 3 8.61626 0.337463 0.888402
210 3 7.22111 2.63137 5.18951
231 3 9.89552 2.63518 5.22649
206 3 5.81164 0.296914 5.24319
227 3 8.50928 0.258428 5.2464
282 3 5.74601 1.90068 7.33318
286 3 7.22361 4.13975 7.36017
259 3 9.83742 4.173 7.41834
254 3 8.55588 1.883 7.4244
327 3 9.74124 2.69237 9.49237
306 3 7.08417 2.55715 9.45487
323 3 8.59784 0.345148 9.40762
302 3 5.79834 0.360531 9.51045
96 2 7.78256 2.69986 12.5161
27 1 8.29369 1.29602 11.9597
64 1 7.32775 3.22993 11.7396
60 1 7.03205 2.66475 13.1064
79 2 8.65043 0.372512 11.6303
23 1 8.8148 4.32957 13.0043
59 1 10.5311 0.1886 12.1822
120 3 9.81089 7.19886 0.986493
125 3 7.23511 7.25929 1.01259
153 3 7.14238 8.87953 3.07357
172 3 8.52553 6.57526 3.17165
176 3 9.91497 8.76106 3.1455
149 3 5.8108 6.52874 3.12461
100 3 8.45705 4.90789 1.08152
121 3 5.76614 4.86163 1.0218
216 3 9.99017 7.22218 5.29982
221 3 7.19984 7.26489 5.24795
196 3 8.4491 4.98344 5.19117
217 3 5.79369 5.02758 5.27108
249 3 7.11326 8.81245 7.41697
272 3 9.9664 8.78776 7.42146
245 3 5.86209 6.48309 7.42705
265 3 8.46751 6.54274 7.36136
312 3 9.74675 7.14845 9.51054
317 3 7.21949 7.2507 9.54748
291 3 8.55713 4.91463 9.52143
313 3 5.83076 4.83308 9.54945
19 1 8.66687 6.0463 13.2666
39 1 8.35536 7.88143 12.153
35 1 6.94828 7.77385 13.0333
83 2 7.53568 7.25995 12.3309
75 2 9.20542 5.19574 13.4309
16 1 10.6845 4.85772 12.2489
113 3 7.30864 11.9056 1.0299
136 3 9.84048 11.9781 1.01673
160 3 8.60778 11.1251 3.17403
190 3 7.18392 13.4825 3.02519
164 3 9.85582 13.4769 3.09421
185 3 5.89019 11.1646 2.94135
109 3 5.95999 9.52732 1.01363
132 3 8.60593 9.59299 1.0456
209 3 7.19068 11.9054 5.20546
232 3 9.9265 11.8996 5.29105
205 3 5.92739 9.6221 5.19656
228 3 8.5322 9.61884 5.24604
253 3 8.47808 11.1744 7.35281
285 3 7.19525 13.545 7.33417
260 3 9.91287 13.5214 7.36732
281 3 5.84117 11.1486 7.40146
328 3 9.95096 11.9399 9.39698
305 3 7.28238 12.0257 9.43446
301 3 5.84069 9.56843 9.44862
324 3 8.50619 9.55941 9.39386
14 1 8.3373 10.3844 13.177
10 1 8.51902 10.8185 11.8424
50 1 6.50413 11.6516 13.7919
70 2 8.84528 9.98097 12.4211
90 2 7.11991 11.1851 14.3283
36 1 10.2054 9.64881 11.907
25 1 8.04125 13.6826 13.5058
52 1 8.24211 13.6825 11.9734
62 1 5.45504 13.2392 11.6867
54 1 6.68736 10.3932 14.7458
119 3 9.95822 16.6607 1.04363
126 3 7.29773 16.578 0.970338
171 3 8.51028 15.8442 3.01138
154 3 7.17718 18.2258 3.16235
175 3 9.8653 18.1981 3.05415
150 3 5.86469 15.9295 3.02975
99 3 8.56244 14.2255 0.986297
122 3 5.95014 14.4445 0.968113
215 3 9.96635 16.6245 5.15859
222 3 7.21779 16.7135 5.15076
195 3 8.52243 14.3202 5.10907
218 3 5.83932 14.3935 5.16655
271 3 9.84388 18.1906 7.32936
246 3 5.84375 15.9084 7.32034
266 3 8.64157 15.8793 7.39467
250 3 7.16589 18.2009 7.39939
311 3 9.82609 16.6353 9.48657
318 3 7.2274 16.6377 9.48757
314 3 5.83708 14.3384 9.40267
292 3 8.56837 14.2199 9.46933
87 2 7.22753 16.8369 12.1006
31 1 7.94253 18.2414 12.0867
47 1 7.75225 16.0088 12.3482
43 1 6.20547 16.8995 12.4671
77 2 8.50133 14.2453 12.814
20 1 10.5314 14.2457 12.3237
107 3 12.5714 2.76297 0.906002
127 3 15.2791 2.60072 0.962334
151 3 13.8565 1.84158 2.96509
155 3 15.222 4.23938 3.04154
183 3 12.5364 4.18437 3.08281
179 3 11.1961 1.81923 3.06878
123 3 13.9084 0.349936 0.892762
103 3 11.3115 0.311966 0.970463
203 3 12.5665 2.56659 5.16002
223 3 15.3728 2.61638 5.12944
219 3 13.9396 0.339567 5.26713
199 3 11.2827 0.247119 5.28389
251 3 15.3031 4.16623 7.30559
247 3 14.0002 1.91189 7.35775
279 3 12.5502 4.11508 7.38118
275 3 11.2364 1.86458 7.37901
299 3 12.695 2.55174 9.46706
319 3 15.1776 2.64461 9.43806
295 3 11.2969 0.253366 9.43299
315 3 14.0751 0.227683 9.50737
45 1 13.1303 2.50842 12.7839
12 1 11.6866 3.61034 11.7971
85 2 12.4359 2.41222 11.9401
41 1 12.3131 1.50527 11.8698
66 2 14.2292 2.63393 13.6454
2 1 14.9055 1.92502 13.4437
29 1 15.5287 4.29992 11.7602
6 1 14.8451 3.52543 13.5241
32 1 15.5626 0.97481 11.4997
80 2 15.5208 0.757482 12.4835
67 2 11.4367 0.0336609 11.7332
115 3 15.2118 7.24873 0.951194
144 3 12.6138 7.21441 0.951899
187 3 13.9246 6.45591 3.02462
192 3 15.3434 8.8496 3.02108
168 3 12.6725 8.90069 3.06687
148 3 11.2287 6.48902 3.03897
111 3 13.9124 4.87695 0.905804
139 3 11.1588 4.92779 1.00041
211 3 15.1994 7.2566 5.17092
240 3 12.571 7.29455 5.16001
207 3 13.9154 4.87376 5.20576
235 3 11.2427 4.96031 5.24463
287 3 15.3298 8.87482 7.34683
283 3 13.9662 6.42385 7.33858
244 3 11.2456 6.48977 7.40802
264 3 12.6179 8.9141 7.38695
336 3 12.6261 7.21788 9.49133
307 3 15.3004 7.24824 9.41079
303 3 13.9124 4.8538 9.36207
331 3 11.1416 4.94162 9.46152
81 2 12.6197 7.07768 11.8357
37 1 12.1272 6.22726 11.9341
33 1 13.5477 7.15987 11.9207
7 1 11.9026 8.68838 12.1484
18 1 15.559 6.3371 12.2633
74 2 15.3983 7.28344 11.8676
72 2 11.44 4.7365 11.7074
69 2 15.8233 4.69654 12.6726
22 1 16.1094 7.89665 12.2453
108 3 12.5861 12.0319 0.931861
128 3 15.3627 12.0841 0.883062
152 3 13.9312 11.2528 2.90981
184 3 12.6299 13.576 3.03085
156 3 15.2188 13.5212 3.08355
180 3 11.2676 11.102 3.0252
104 3 11.1582 9.48964 0.974691
124 3 13.9002 9.53213 0.927963
204 3 12.5975 11.9757 5.20917
224 3 15.2319 11.9353 5.12042
200 3 11.2129 9.58407 5.19564
220 3 13.966 9.68276 5.22862
252 3 15.2873 13.4514 7.29651
276 3 11.2357 11.1411 7.36412
248 3 13.9626 11.1501 7.39362
280 3 12.5282 13.4806 7.38865
320 3 15.3669 11.9132 9.42984
300 3 12.5426 11.96 9.459
296 3 11.2277 9.64297 9.43961
316 3 13.9935 9.5691 9.38966
42 1 13.7646 11.8106 11.9362
24 1 11.8229 13.1585 12.0166
34 1 15.9276 11.0239 12.5977
82 2 15.3329 11.842 12.4182
86 2 12.7659 11.789 11.7156
46 1 12.2813 10.9976 11.8392
84 2 11.3014 9.60981 11.8327
5 1 16.0422 12.5073 12.5473
116 3 15.2959 16.6982 0.942333
143 3 12.711 16.4936 0.914194
167 3 12.5385 18.0862 3.03344
188 3 13.9107 15.8828 3.1128
191 3 15.3105 18.2092 2.99748
147 3 11.3222 15.8396 2.9823
112 3 13.9489 14.3251 1.05124
140 3 11.2305 14.2831 0.991885
212 3 15.266 16.6328 5.24794
239 3 12.6027 16.5958 5.2898
208 3 13.9065 14.3124 5.25405
236 3 11.175 14.3437 5.2342
284 3 13.9434 15.789 7.33483
243 3 11.2885 15.8259 7.43453
263 3 12.5396 18.1299 7.42744
288 3 15.2242 18.2624 7.36125
308 3 15.313 16.5822 9.36842
335 3 12.7289 16.5502 9.45857
304 3 14.0033 14.2494 9.40492
332 3 11.2029 14.3337 9.53357
48 1 12.4435 15.4556 12.0818
3 1 11.6262 17.7074 11.8737
88 2 12.6885 16.3425 11.9223
44 1 13.6933 16.3503 12.2115
56 1 15.8512 15.9223 11.6271
92 2 15.5715 16.0527 12.5663
40 1 15.843 17.0368 12.6858
76 2 11.4591 14.0804 11.7974
