ITEM: TIMESTEP
120000000
ITEM: NUMBER OF ATOMS
336
ITEM: BOX BOUNDS pp pp pp
0.0000000000000000e+00 1.6167135238600000e+01
0.0000000000000000e+00 1.8668199539200000e+01
0.0000000000000000e+00 2.5747400283800001e+01
ITEM: ATOMS id type x y z
117 3 1.81638 2.66196 0.889002
141 3 4.53281 2.59353 0.952692
145 3 3.22229 1.80569 3.05122
165 3 4.50493 4.14557 3.08324
173 3 1.78052 4.18202 2.9791
169 3 0.467497 1.84949 3.05814
97 3 0.468281 0.41071 0.926414
138 3 3.21343 0.284093 0.975169
213 3 1.82145 2.64621 5.17155
237 3 4.50937 2.64134 5.21033
193 3 0.453213 0.312496 5.1502
234 3 3.10308 0.250244 5.23045
261 3 4.52955 4.11736 7.35543
241 3 3.04792 1.93894 7.35327
269 3 1.78675 4.14433 7.29022
267 3 0.414184 1.87175 7.29955
309 3 1.79759 2.68841 9.45071
333 3 4.49109 2.60356 9.51955
330 3 3.2316 0.213064 9.50267
290 3 0.496841 0.302252 9.29342
55 1 3.53153 3.12842 13.1967
28 1 0.355842 0.448669 12.8324
91 2 2.88961 2.76567 12.6462
38 1 5.34414 3.87992 11.9536
51 1 3.17458 2.6264 11.6461
89 2 5.27989 4.28083 12.7846
4 1 2.50161 0.83589 12.5947
105 3 4.50064 7.30146 1.01355
133 3 1.93076 7.22831 0.872028
177 3 3.22853 6.5554 3.01944
181 3 4.48115 8.82654 3.02685
161 3 1.81566 8.87542 2.98903
157 3 0.504342 6.5162 2.95596
101 3 3.10926 4.89193 0.973526
129 3 0.403554 4.91147 0.891455
201 3 4.47556 7.35536 5.17757
229 3 1.76821 7.33271 5.17759
197 3 3.09052 4.95715 5.12953
225 3 0.45615 4.98728 5.11589
257 3 1.85227 8.81447 7.31508
277 3 4.48691 8.83524 7.26647
273 3 3.17517 6.53961 7.28685
255 3 0.444583 6.50099 7.3968
325 3 1.81264 7.31542 9.40135
297 3 4.44722 7.35878 9.49287
293 3 3.13804 4.98063 9.34784
321 3 0.447169 4.9872 9.39604
73 2 0.965469 8.96924 12.7552
65 2 5.2876 8.82488 12.7893
1 1 5.2377 8.86483 11.6576
26 1 2.38186 6.56453 13.0697
30 1 2.67655 5.83876 11.6147
78 2 2.85257 5.81899 12.5882
49 1 4.71248 5.04042 12.6484
17 1 1.3328 8.99678 11.7362
13 1 0.56893 4.69014 12.4625
118 3 1.80676 12.0515 0.83136
142 3 4.59928 12.0318 0.942144
146 3 3.16358 11.196 3.00268
174 3 1.83124 13.5066 3.03711
166 3 4.49092 13.5264 2.98997
170 3 0.527058 11.1212 2.84858
137 3 3.14548 9.61102 0.930055
98 3 0.394158 9.5748 0.905384
214 3 1.78161 11.9541 5.10341
238 3 4.55236 11.8144 5.17732
233 3 3.10473 9.6952 5.17666
194 3 0.436781 9.5994 5.18527
270 3 1.7284 13.5185 7.30164
268 3 0.50272 11.1683 7.24062
242 3 3.12069 11.1984 7.31165
262 3 4.5335 13.4744 7.2888
334 3 4.45833 12.0379 9.4066
310 3 1.74152 11.9248 9.43585
329 3 3.13628 9.5469 9.33012
289 3 0.496051 9.56156 9.32105
53 1 4.7636 9.65618 12.9586
94 2 5.22733 13.2209 12.7718
21 1 1.60236 9.3863 13.3965
71 2 3.4938 11.0292 12.742
15 1 4.07375 11.7797 12.9639
11 1 3.16747 11.1851 11.6983
62 1 5.31942 13.3771 11.5766
95 2 1.0771 13.7751 12.7813
106 3 4.3793 16.6809 0.969214
134 3 1.83013 16.7176 0.953427
178 3 3.1024 15.919 3.06283
162 3 1.80609 18.2061 3.03923
182 3 4.57558 18.1731 3.02169
158 3 0.537721 15.8603 3.04238
102 3 3.14319 14.2792 0.940798
130 3 0.525169 14.3589 0.947849
202 3 4.49949 16.6117 5.29074
230 3 1.83345 16.7202 5.14664
198 3 3.12127 14.2695 5.20272
226 3 0.398352 14.2876 5.19086
278 3 4.47433 18.1875 7.34023
256 3 0.498753 15.818 7.29075
274 3 3.19421 15.8224 7.33202
258 3 1.81318 18.1759 7.3767
326 3 1.78433 16.6379 9.36892
298 3 4.51045 16.5649 9.45892
294 3 3.08701 14.2185 9.40802
322 3 0.370863 14.3055 9.41816
57 1 4.0401 16.3491 12.0573
93 2 4.69677 16.2273 12.8057
63 1 0.738118 14.6066 13.4426
61 1 4.33307 16.8823 13.3624
58 1 4.87556 14.0798 13.2109
8 1 2.15191 17.9803 12.0107
9 1 1.49602 14.1687 12.0521
68 2 2.04262 18.5994 12.8323
114 3 7.0977 2.66262 0.935866
135 3 9.73909 2.63632 1.01381
159 3 8.53514 1.84475 3.00131
189 3 7.12846 4.12727 3.13183
163 3 9.91683 4.19837 3.07449
186 3 5.89455 1.8501 3.09006
110 3 5.85719 0.250334 0.89071
131 3 8.59869 0.296202 0.893826
210 3 7.21996 2.63352 5.16725
231 3 9.88832 2.64372 5.22781
206 3 5.79304 0.286392 5.23842
227 3 8.50804 0.289884 5.25182
282 3 5.75802 1.88914 7.37058
254 3 8.57742 1.90221 7.41343
286 3 7.22406 4.16215 7.37346
259 3 9.84198 4.19136 7.41429
306 3 7.0818 2.55103 9.46522
327 3 9.76889 2.68247 9.48972
302 3 5.75581 0.37261 9.49328
323 3 8.60292 0.349924 9.42005
64 1 7.3709 3.22205 11.6706
96 2 7.84664 2.71509 12.4795
27 1 8.18418 1.27574 11.9008
60 1 7.00509 2.81637 13.0385
79 2 8.60645 0.378033 11.6549
23 1 8.6436 4.61884 13.0647
59 1 10.5508 0.180481 12.2874
120 3 9.81769 7.20522 0.993464
125 3 7.21654 7.2641 1.00795
153 3 7.1483 8.85933 3.08374
172 3 8.51175 6.57579 3.18384
176 3 9.91203 8.74036 3.14046
149 3 5.83825 6.54814 3.14702
100 3 8.46281 4.90881 1.0826
121 3 5.75755 4.85789 1.05368
216 3 10.0389 7.25673 5.28481
221 3 7.1777 7.24613 5.27964
196 3 8.45697 4.95258 5.2006
217 3 5.81106 5.01873 5.25754
265 3 8.50251 6.54024 7.3557
249 3 7.09977 8.80324 7.41381
272 3 9.94989 8.79222 7.40507
245 3 5.85084 6.4749 7.44098
317 3 7.22815 7.27209 9.55435
312 3 9.78496 7.13432 9.51948
313 3 5.83173 4.82531 9.56077
291 3 8.53329 4.88296 9.51899
39 1 8.39579 7.85749 12.2223
19 1 8.66479 6.02671 13.3434
35 1 6.86464 7.7411 12.8776
83 2 7.59823 7.21962 12.3227
75 2 9.19983 5.24626 13.5083
16 1 10.4961 4.82661 11.9793
113 3 7.30517 11.9071 0.969833
136 3 9.84008 11.9605 0.990612
160 3 8.61536 11.1287 3.15974
190 3 7.19481 13.4852 3.05145
164 3 9.88676 13.4866 3.06134
185 3 5.88848 11.1996 2.97087
132 3 8.58981 9.59649 1.0508
109 3 5.93126 9.52166 1.02669
209 3 7.19396 11.9055 5.19234
232 3 9.94156 11.8803 5.29728
205 3 5.93405 9.62183 5.18903
228 3 8.5179 9.62014 5.2265
253 3 8.49706 11.1522 7.355
260 3 9.89289 13.5273 7.34802
285 3 7.18162 13.5401 7.34603
281 3 5.87332 11.1381 7.40795
328 3 9.9434 11.9501 9.4058
305 3 7.28767 12.0249 9.43407
301 3 5.84415 9.59963 9.45501
324 3 8.48398 9.56891 9.39235
10 1 8.49135 10.6671 11.8571
70 2 8.8278 10.0434 12.4879
14 1 8.15575 10.2378 13.1451
25 1 8.17214 13.6204 13.6071
36 1 10.3145 9.59945 12.0064
90 2 7.16766 11.1848 14.1856
50 1 6.40616 11.6697 13.7436
52 1 8.30282 13.5515 12.0666
54 1 6.83191 10.4987 14.8527
119 3 9.9502 16.6789 1.03905
126 3 7.30433 16.5971 0.954488
154 3 7.18644 18.246 3.11747
171 3 8.52302 15.8559 3.02413
175 3 9.8882 18.2016 3.06676
150 3 5.86608 15.9157 3.04462
122 3 5.93691 14.4273 0.958901
99 3 8.55856 14.2229 0.96632
215 3 9.95132 16.6328 5.20601
222 3 7.20351 16.6957 5.17942
195 3 8.55933 14.2986 5.13646
218 3 5.86868 14.4191 5.15561
271 3 9.8594 18.1764 7.31549
246 3 5.8451 15.9026 7.35538
266 3 8.63118 15.8649 7.40208
250 3 7.16988 18.208 7.43153
318 3 7.20908 16.6611 9.50899
311 3 9.83797 16.6194 9.46695
314 3 5.81306 14.334 9.41265
292 3 8.54769 14.246 9.44457
43 1 6.2263 16.8836 12.1728
87 2 7.17006 16.8072 12.0679
47 1 7.70442 15.9677 12.3768
31 1 8.11506 18.2048 11.8575
77 2 8.51463 14.1493 12.826
20 1 10.5959 14.0803 12.3773
107 3 12.5636 2.76823 0.944048
127 3 15.2747 2.58747 0.97656
151 3 13.8531 1.83503 2.94815
155 3 15.2357 4.22396 3.03735
183 3 12.5281 4.19392 3.04632
179 3 11.1617 1.82144 3.06691
123 3 13.9286 0.352445 0.874449
103 3 11.3238 0.286296 0.971161
203 3 12.6023 2.55977 5.14998
223 3 15.3829 2.63134 5.15019
219 3 13.9305 0.326949 5.25025
199 3 11.2762 0.258415 5.25865
247 3 13.9626 1.89828 7.33592
251 3 15.3241 4.13234 7.31566
275 3 11.2699 1.86328 7.36085
279 3 12.5594 4.16658 7.38997
319 3 15.1994 2.6142 9.45527
299 3 12.6807 2.57019 9.49342
315 3 14.0901 0.223564 9.53726
295 3 11.2589 0.23575 9.44291
85 2 12.4145 2.38467 11.9474
12 1 11.6974 3.84373 11.9399
41 1 12.0988 1.30465 11.7577
45 1 13.1817 2.66192 12.6918
2 1 14.7082 1.84319 13.1207
66 2 14.3289 2.61868 13.6573
29 1 15.4787 4.29333 11.8275
6 1 14.7493 3.50251 13.5578
80 2 15.5544 0.713372 12.5253
32 1 15.633 1.13534 11.6523
67 2 11.4532 0.0356635 11.7687
69 2 15.883 4.62075 12.6483
115 3 15.2237 7.22365 0.94151
144 3 12.6433 7.22257 0.971061
187 3 13.9574 6.42963 3.01397
168 3 12.6755 8.89356 3.08124
192 3 15.3638 8.81082 3.02423
148 3 11.226 6.46701 3.06898
139 3 11.1548 4.94745 0.993268
111 3 13.9141 4.88323 0.92239
211 3 15.1887 7.26521 5.18904
240 3 12.5637 7.29592 5.17506
207 3 13.9046 4.89304 5.19475
235 3 11.2417 4.97328 5.25683
287 3 15.3278 8.87672 7.32271
283 3 13.9649 6.43654 7.34841
244 3 11.2309 6.51196 7.41551
264 3 12.6107 8.89044 7.37363
307 3 15.3143 7.2494 9.39237
336 3 12.6398 7.22771 9.51577
331 3 11.1563 4.91444 9.42818
303 3 13.9256 4.85277 9.36021
37 1 12.3129 6.23536 12.0186
33 1 13.6231 7.10097 12.1262
81 2 12.6888 7.07803 11.7905
72 2 11.5249 4.7368 11.7063
7 1 11.7198 8.67915 12.1491
74 2 15.38 7.3075 11.8538
18 1 15.6399 6.25629 12.1533
22 1 16.1194 7.90585 12.4043
108 3 12.5665 12.0421 0.893203
128 3 15.3351 12.0748 0.889078
152 3 13.9143 11.2149 2.91975
156 3 15.2145 13.5273 3.06486
184 3 12.6326 13.5951 3.04781
180 3 11.2976 11.0933 3.01367
124 3 13.9011 9.50739 0.934114
104 3 11.1652 9.49734 0.97072
204 3 12.6354 11.9822 5.19482
224 3 15.227 11.9356 5.08461
220 3 13.981 9.69659 5.21175
200 3 11.2147 9.57445 5.21155
276 3 11.2383 11.1465 7.3504
252 3 15.2851 13.4715 7.27117
248 3 13.9461 11.1451 7.41716
280 3 12.5073 13.482 7.39832
320 3 15.3876 11.9133 9.43643
300 3 12.5473 11.9578 9.45169
296 3 11.2052 9.64223 9.45322
316 3 14.0006 9.5509 9.40331
46 1 12.122 10.9898 11.8819
84 2 11.3194 9.5853 11.8813
24 1 11.8488 13.1686 12.0727
82 2 15.3367 11.8693 12.363
86 2 12.7699 11.8242 11.7231
42 1 13.7987 11.7948 12.0303
34 1 15.9746 11.0393 12.5759
5 1 15.9962 12.4786 12.4327
116 3 15.3207 16.6864 0.946739
143 3 12.6835 16.531 0.904974
167 3 12.5218 18.069 3.019
188 3 13.9114 15.8825 3.14207
191 3 15.2935 18.2288 3.0269
147 3 11.3284 15.8357 2.99749
112 3 13.9387 14.3054 1.05249
140 3 11.2463 14.2838 1.00896
212 3 15.2421 16.6325 5.23656
239 3 12.5864 16.5989 5.29566
208 3 13.8929 14.3016 5.24639
236 3 11.1661 14.3402 5.23579
284 3 13.9594 15.8186 7.30261
263 3 12.5526 18.1529 7.39373
243 3 11.2787 15.7954 7.41877
288 3 15.1972 18.2053 7.36018
308 3 15.3103 16.5585 9.38199
335 3 12.7154 16.5109 9.47847
304 3 14.0352 14.2863 9.44038
332 3 11.211 14.3614 9.55554
44 1 13.6115 16.2302 12.1768
48 1 12.4726 15.3657 12.1137
88 2 12.7174 16.3126 11.9023
92 2 15.6172 16.0167 12.5834
56 1 15.9176 15.7023 11.6677
3 1 11.6794 17.7854 11.8762
40 1 15.6439 17.081 12.6626
76 2 11.4491 14.0242 11.8093
