ITEM: TIMESTEP
120000000
ITEM: NUMBER OF ATOMS
336
ITEM: BOX BOUNDS pp pp pp
0.0000000000000000e+00 1.6167135238600000e+01
0.0000000000000000e+00 1.8668199539200000e+01
0.0000000000000000e+00 2.5747400283800001e+01
ITEM: ATOMS id type x y z
117 3 1.81057 2.65512 0.915578
141 3 4.5312 2.58159 0.960216
145 3 3.20019 1.82052 3.06615
173 3 1.79201 4.19955 2.98189
165 3 4.50948 4.14438 3.06578
169 3 0.457148 1.87673 3.02802
138 3 3.21622 0.293989 0.964662
97 3 0.454464 0.400879 0.914687
213 3 1.86245 2.66279 5.15433
237 3 4.50041 2.62421 5.22412
193 3 0.454915 0.317942 5.15784
234 3 3.12181 0.287117 5.25949
261 3 4.53083 4.14488 7.32055
267 3 0.433334 1.85631 7.32686
269 3 1.75314 4.15518 7.29793
241 3 3.04481 1.94997 7.35745
309 3 1.81259 2.69672 9.46578
333 3 4.48453 2.59873 9.49016
290 3 0.499183 0.311463 9.26877
330 3 3.21801 0.210322 9.5021
91 2 2.87973 2.72997 12.6677
28 1 0.259518 0.576742 12.8726
55 1 3.44089 3.15609 13.1449
89 2 5.24957 4.26802 12.7791
51 1 3.28725 2.71761 11.7792
38 1 5.1717 3.82177 11.7249
4 1 2.45698 0.826667 12.5783
13 1 0.638189 4.45118 12.63
105 3 4.46804 7.32246 0.984733
133 3 1.94581 7.21533 0.88752
177 3 3.23289 6.55248 3.03196
181 3 4.51213 8.83712 3.02141
161 3 1.82204 8.86137 2.97933
157 3 0.48374 6.49727 2.91854
101 3 3.09073 4.87859 0.98158
129 3 0.403211 4.89687 0.888852
197 3 3.08426 4.95923 5.14638
201 3 4.48488 7.35738 5.21965
229 3 1.766 7.32176 5.17747
225 3 0.473473 4.98049 5.12231
257 3 1.85363 8.79949 7.32047
277 3 4.47087 8.82039 7.26862
273 3 3.14391 6.54366 7.2882
255 3 0.424253 6.5175 7.38835
297 3 4.45435 7.36325 9.46707
325 3 1.83731 7.30482 9.39347
293 3 3.1267 4.97165 9.35976
321 3 0.475705 4.95874 9.38864
26 1 2.08788 6.37065 12.9557
65 2 5.26877 8.84553 12.7528
30 1 2.65652 5.61275 11.6306
1 1 5.33592 8.81673 11.7233
78 2 2.80046 5.81979 12.6604
73 2 1.01256 8.97438 12.7231
49 1 4.73638 5.04943 12.5031
17 1 1.30007 8.95621 11.7471
118 3 1.77793 12.0647 0.820352
142 3 4.57137 12.0675 0.961857
146 3 3.18 11.1823 3.00781
174 3 1.80709 13.5021 3.02808
166 3 4.49138 13.5153 2.99898
170 3 0.527435 11.1052 2.85757
137 3 3.13935 9.60854 0.945976
98 3 0.399933 9.56102 0.88829
214 3 1.79362 11.9527 5.09823
238 3 4.58388 11.8164 5.20228
233 3 3.10901 9.6979 5.17955
194 3 0.449526 9.58183 5.19521
270 3 1.73136 13.5149 7.30983
268 3 0.500626 11.1454 7.24669
242 3 3.1061 11.1594 7.32333
262 3 4.53722 13.4569 7.26892
334 3 4.46147 12.0526 9.41432
310 3 1.7218 11.9346 9.40052
329 3 3.12953 9.58486 9.3554
289 3 0.495527 9.55204 9.30258
15 1 4.2115 11.8396 12.8492
53 1 4.80981 9.59395 12.9112
62 1 5.32816 13.3517 11.6356
94 2 5.17063 13.226 12.6731
11 1 3.17439 11.1811 11.8605
71 2 3.50358 11.0572 12.7251
21 1 1.59344 9.44823 13.1921
95 2 1.12645 13.7385 12.7464
58 1 5.09841 13.9385 13.1317
9 1 1.44876 13.939 11.9434
106 3 4.40945 16.6896 0.9577
134 3 1.85042 16.7096 0.965048
162 3 1.83544 18.1973 3.0531
178 3 3.12907 15.938 3.04022
182 3 4.56876 18.1844 3.03143
158 3 0.532348 15.8533 3.05433
102 3 3.14102 14.2871 0.937059
130 3 0.521207 14.3526 0.941081
226 3 0.404045 14.2931 5.18795
202 3 4.50388 16.6123 5.28805
230 3 1.82844 16.6871 5.17601
198 3 3.11135 14.2684 5.21259
278 3 4.46523 18.2007 7.34589
256 3 0.489239 15.837 7.24103
274 3 3.20101 15.8216 7.30671
258 3 1.83216 18.1544 7.39155
298 3 4.49308 16.5476 9.44976
326 3 1.78795 16.6547 9.34874
294 3 3.10915 14.2205 9.39847
322 3 0.394762 14.3118 9.42289
63 1 0.876249 14.5088 13.3652
57 1 3.9923 16.3309 12.0154
93 2 4.66033 16.2235 12.7586
61 1 4.28461 16.7864 13.3728
68 2 2.05853 18.5885 12.8356
8 1 2.01491 17.8995 12.0827
114 3 7.11711 2.66827 0.962886
135 3 9.73586 2.65726 1.03084
159 3 8.53783 1.80955 3.02254
189 3 7.10465 4.14496 3.15365
163 3 9.88348 4.18206 3.08969
186 3 5.91253 1.87298 3.09737
110 3 5.85465 0.256324 0.903077
131 3 8.62452 0.317967 0.919535
210 3 7.19073 2.63556 5.16059
231 3 9.89716 2.63168 5.21078
227 3 8.53084 0.278964 5.23
206 3 5.80799 0.301297 5.23657
282 3 5.75294 1.89151 7.3687
286 3 7.22288 4.171 7.38451
259 3 9.84961 4.22655 7.41846
254 3 8.60622 1.90429 7.42571
327 3 9.78228 2.67317 9.48374
306 3 7.10136 2.56088 9.46632
302 3 5.77361 0.372408 9.50015
323 3 8.60599 0.35385 9.41358
96 2 7.82044 2.72176 12.4801
64 1 7.52336 3.14932 11.614
27 1 8.29229 1.20088 11.9479
79 2 8.5552 0.313754 11.6425
60 1 7.00045 2.96684 13.1179
23 1 8.69351 4.58932 13.1573
59 1 10.644 0.242429 12.2392
120 3 9.82129 7.19897 1.00353
125 3 7.21933 7.26287 1.01114
172 3 8.51109 6.58549 3.18359
153 3 7.1738 8.85971 3.07019
176 3 9.8978 8.77446 3.14842
149 3 5.8326 6.55559 3.1318
121 3 5.76488 4.84634 1.03738
100 3 8.474 4.892 1.10367
216 3 10.0197 7.26033 5.31665
221 3 7.17052 7.23231 5.2791
196 3 8.45085 4.9704 5.18655
217 3 5.81042 5.02319 5.27778
249 3 7.10532 8.81498 7.40838
272 3 9.94293 8.78859 7.4184
245 3 5.85198 6.49855 7.44375
265 3 8.48805 6.51171 7.3687
312 3 9.80284 7.14515 9.51752
317 3 7.23784 7.26891 9.55599
291 3 8.53649 4.89166 9.5011
313 3 5.86438 4.83572 9.53466
83 2 7.60507 7.20876 12.3069
19 1 8.66767 6.01272 13.3388
35 1 6.88321 7.66667 12.8413
39 1 8.38344 7.80385 12.1419
75 2 9.21277 5.24776 13.4758
16 1 10.5766 4.74691 12.04
113 3 7.30617 11.9232 0.97133
136 3 9.85936 11.9689 1.02623
160 3 8.60514 11.1371 3.17032
190 3 7.18065 13.5018 3.05651
164 3 9.86437 13.4917 3.05668
185 3 5.89462 11.1794 2.93282
132 3 8.56591 9.59884 1.01951
109 3 5.93666 9.53249 1.00365
209 3 7.18771 11.8998 5.17782
232 3 9.90885 11.8827 5.31231
205 3 5.92371 9.59654 5.18784
228 3 8.51237 9.62186 5.23297
260 3 9.90148 13.5372 7.3688
253 3 8.48727 11.1267 7.3642
281 3 5.84833 11.1323 7.3815
285 3 7.1636 13.5382 7.35892
328 3 9.94301 11.935 9.40783
305 3 7.29763 12.034 9.46388
324 3 8.47005 9.57411 9.39575
301 3 5.8433 9.61645 9.43566
10 1 8.50262 10.6274 11.7578
14 1 8.20535 10.1773 13.2767
36 1 10.377 9.57876 12.0671
54 1 6.76435 10.5578 14.6992
70 2 8.8278 10.0299 12.4641
25 1 8.1383 13.5489 13.5715
90 2 7.18875 11.1629 14.2054
50 1 6.34768 11.6509 13.8959
52 1 8.2525 13.567 11.9536
119 3 9.94635 16.6805 1.05407
126 3 7.2781 16.6027 0.966731
154 3 7.18507 18.2336 3.11486
171 3 8.53447 15.8438 2.97986
175 3 9.88149 18.2033 3.06051
150 3 5.84556 15.8992 3.04875
122 3 5.93536 14.4357 0.936942
99 3 8.57613 14.2437 0.957452
215 3 9.97108 16.6017 5.22611
222 3 7.21276 16.699 5.16422
195 3 8.5576 14.3188 5.12183
218 3 5.8785 14.4099 5.16765
271 3 9.85902 18.187 7.32991
246 3 5.83161 15.9052 7.34522
266 3 8.62311 15.8719 7.40471
250 3 7.15719 18.1876 7.44087
311 3 9.82067 16.6241 9.45219
318 3 7.23581 16.636 9.48812
314 3 5.82951 14.3504 9.39467
292 3 8.56674 14.2548 9.44118
47 1 7.62644 16.117 12.2681
31 1 7.95632 18.1261 11.8852
87 2 7.19989 16.8427 12.0412
43 1 6.12211 16.6841 12.2011
20 1 10.5631 14.1203 12.1999
77 2 8.57793 14.0992 12.8504
107 3 12.5414 2.75324 0.931787
127 3 15.2631 2.60103 0.957541
151 3 13.8639 1.83504 2.9416
155 3 15.2247 4.22667 3.05272
183 3 12.5281 4.22073 3.05491
179 3 11.1896 1.81842 3.06769
123 3 13.9177 0.367727 0.884308
103 3 11.3137 0.291623 0.972365
203 3 12.5639 2.59024 5.14721
223 3 15.374 2.62931 5.13983
219 3 13.9463 0.331496 5.24916
199 3 11.2624 0.262516 5.27171
251 3 15.334 4.14241 7.28569
247 3 13.9814 1.91127 7.31499
275 3 11.2479 1.85648 7.36155
279 3 12.5484 4.13674 7.39555
319 3 15.2109 2.6111 9.48022
299 3 12.6733 2.59368 9.49146
295 3 11.2569 0.264774 9.43149
315 3 14.0682 0.209756 9.49878
12 1 11.6775 3.78036 11.8877
85 2 12.3941 2.46806 11.954
45 1 13.1789 2.5814 12.6206
41 1 12.3356 1.59429 11.8326
66 2 14.2914 2.68614 13.6512
6 1 14.8111 3.42766 13.5906
32 1 15.5054 0.997519 11.5874
2 1 14.9194 2.09971 13.17
80 2 15.4856 0.723553 12.5342
67 2 11.3963 0.0824328 11.7409
29 1 15.3956 4.14845 12.0702
69 2 15.8312 4.64432 12.651
115 3 15.1962 7.21335 0.959379
144 3 12.6201 7.23177 0.981016
187 3 13.935 6.44299 3.02961
192 3 15.3633 8.8378 3.01566
168 3 12.6714 8.88208 3.06685
148 3 11.2296 6.48402 3.04176
111 3 13.9194 4.88327 0.922993
139 3 11.14 4.9375 0.998725
211 3 15.1897 7.2911 5.20342
240 3 12.571 7.27498 5.19236
235 3 11.2494 4.98536 5.28387
207 3 13.9014 4.87812 5.1974
287 3 15.3414 8.90353 7.29514
283 3 13.9412 6.42075 7.33526
244 3 11.2432 6.54177 7.40039
264 3 12.609 8.90705 7.36685
336 3 12.6117 7.2384 9.49383
307 3 15.3013 7.22564 9.41668
303 3 13.9126 4.853 9.36095
331 3 11.1698 4.8937 9.40079
33 1 13.5297 7.10671 12.0423
81 2 12.6174 7.09276 11.7782
37 1 12.3577 6.17775 12.039
18 1 15.5257 6.29666 12.1263
7 1 11.7239 8.73113 12.1688
74 2 15.3649 7.21032 11.8195
72 2 11.4866 4.73191 11.7169
22 1 16.0643 7.73916 12.28
108 3 12.535 12.0468 0.928912
128 3 15.3565 12.0948 0.849315
152 3 13.9338 11.24 2.92657
156 3 15.2179 13.4897 3.08092
184 3 12.6319 13.5717 3.03953
180 3 11.2828 11.0886 2.99551
104 3 11.1731 9.49674 0.994231
124 3 13.8851 9.51028 0.953016
204 3 12.6022 11.9895 5.20005
224 3 15.2318 11.9499 5.08551
220 3 14.006 9.70883 5.21855
200 3 11.2225 9.58174 5.20515
276 3 11.2389 11.1328 7.35363
252 3 15.2823 13.4579 7.27369
248 3 13.9489 11.1261 7.40384
280 3 12.5156 13.4935 7.37673
300 3 12.5455 11.9503 9.4572
320 3 15.3724 11.9284 9.42674
296 3 11.2114 9.67191 9.44846
316 3 14.0267 9.54947 9.37401
86 2 12.7629 11.8659 11.7366
46 1 12.2305 11.0312 11.9063
82 2 15.3655 11.8561 12.3996
42 1 13.7591 11.8022 11.944
24 1 11.8064 13.2422 12.0945
84 2 11.3145 9.65034 11.891
34 1 15.9752 11.0778 12.701
5 1 16.1268 12.4704 12.4623
116 3 15.3215 16.6916 0.950759
143 3 12.691 16.5497 0.905803
167 3 12.5425 18.0932 3.03001
188 3 13.8989 15.8734 3.11919
191 3 15.3053 18.2031 3.01243
147 3 11.3263 15.8427 2.97911
140 3 11.2376 14.3135 1.00703
112 3 13.9627 14.3074 1.04966
212 3 15.2266 16.6573 5.23073
239 3 12.5903 16.5813 5.2882
208 3 13.9076 14.2709 5.25717
236 3 11.1619 14.342 5.25765
284 3 13.9661 15.8034 7.30986
288 3 15.2064 18.197 7.35397
243 3 11.2974 15.8168 7.41055
263 3 12.5522 18.1753 7.40682
335 3 12.7293 16.5471 9.43618
308 3 15.323 16.5391 9.39462
304 3 14.0218 14.2609 9.43868
332 3 11.1981 14.3457 9.52221
44 1 13.675 16.1926 12.2073
88 2 12.7287 16.3668 11.9264
56 1 15.8743 15.6909 11.6563
48 1 12.5407 15.4021 12.286
3 1 11.7031 17.7553 11.949
92 2 15.6372 16.022 12.5471
40 1 15.7171 16.9982 12.6854
76 2 11.4499 14.0767 11.7757
