ITEM: TIMESTEP
120000000
ITEM: NUMBER OF ATOMS
336
ITEM: BOX BOUNDS pp pp pp
0.0000000000000000e+00 1.6167135238600000e+01
0.0000000000000000e+00 1.8668199539200000e+01
0.0000000000000000e+00 2.5747400283800001e+01
ITEM: ATOMS id type x y z
117 3 1.82046 2.65682 0.896316
141 3 4.51524 2.59331 0.97174
145 3 3.2352 1.80755 3.05679
173 3 1.77675 4.17956 2.98334
165 3 4.50994 4.13506 3.09171
169 3 0.476948 1.8416 3.05284
138 3 3.23016 0.275496 0.996372
97 3 0.471444 0.398373 0.923021
213 3 1.82868 2.6629 5.20187
237 3 4.5116 2.63937 5.21283
234 3 3.10468 0.260731 5.20783
193 3 0.442134 0.327305 5.14131
269 3 1.80481 4.13801 7.29017
267 3 0.415961 1.87206 7.29826
261 3 4.54085 4.12129 7.35767
241 3 3.05839 1.93957 7.35687
333 3 4.50826 2.6093 9.52061
309 3 1.79199 2.70832 9.44995
290 3 0.498086 0.306927 9.29176
330 3 3.21375 0.216934 9.5078
55 1 3.5638 3.09715 13.2912
4 1 2.49725 0.823659 12.6313
91 2 2.88722 2.75029 12.6865
28 1 0.363021 0.579037 12.7619
51 1 3.2109 2.65662 11.6833
89 2 5.27695 4.28063 12.8127
13 1 0.573978 4.63523 12.4805
38 1 5.36792 3.8939 11.9112
105 3 4.48036 7.29726 1.01495
133 3 1.93165 7.24832 0.861182
161 3 1.81723 8.8689 2.98962
177 3 3.23741 6.54027 3.01521
181 3 4.48057 8.83666 3.03034
157 3 0.509054 6.49858 2.94844
101 3 3.1094 4.9019 0.963447
129 3 0.401619 4.89915 0.894125
197 3 3.07683 4.96287 5.13407
201 3 4.48643 7.35069 5.17259
229 3 1.73363 7.33339 5.18132
225 3 0.43984 4.99214 5.10584
257 3 1.84788 8.80875 7.33108
277 3 4.48385 8.80595 7.28706
273 3 3.19083 6.54553 7.28501
255 3 0.427666 6.51019 7.39429
297 3 4.45976 7.37384 9.49407
325 3 1.82785 7.31969 9.39581
293 3 3.12924 4.98245 9.34106
321 3 0.448985 4.97585 9.40806
30 1 2.68422 5.86912 11.6094
26 1 2.29183 6.58819 12.9588
1 1 5.27778 8.82502 11.6559
65 2 5.27237 8.80827 12.7784
78 2 2.86037 5.81573 12.5951
73 2 1.0062 8.97262 12.7332
49 1 4.72654 5.08093 12.737
17 1 1.34997 9.07237 11.7309
118 3 1.80642 12.0646 0.840182
142 3 4.58566 12.0453 0.954171
146 3 3.1515 11.2015 3.01546
174 3 1.82343 13.4944 3.03769
166 3 4.4685 13.5277 2.98976
170 3 0.540196 11.1179 2.85312
137 3 3.14121 9.61042 0.936659
98 3 0.390918 9.58055 0.91026
214 3 1.77991 11.9373 5.1078
238 3 4.5436 11.8144 5.18882
233 3 3.10919 9.70506 5.18012
194 3 0.422056 9.59618 5.19092
270 3 1.72418 13.5266 7.31446
268 3 0.511683 11.1747 7.25379
242 3 3.11617 11.1902 7.31564
262 3 4.53355 13.4606 7.27309
310 3 1.75324 11.9251 9.44267
334 3 4.45787 12.0407 9.40652
329 3 3.13829 9.54652 9.34309
289 3 0.487795 9.56763 9.32328
53 1 4.76406 9.66659 12.9032
94 2 5.18419 13.1853 12.7659
15 1 4.02174 11.7392 12.9801
62 1 5.28882 13.3457 11.5967
11 1 3.12667 11.1557 11.76
71 2 3.50748 10.9855 12.7376
21 1 1.58767 9.3523 13.3419
95 2 1.10399 13.7931 12.805
106 3 4.39771 16.6738 0.965222
134 3 1.83515 16.7324 0.946044
162 3 1.81434 18.2204 3.04294
178 3 3.08182 15.9224 3.08164
182 3 4.57869 18.171 3.03146
158 3 0.543152 15.8588 3.05644
102 3 3.11785 14.2706 0.958631
130 3 0.52164 14.3481 0.931004
202 3 4.49123 16.6185 5.29252
230 3 1.82443 16.715 5.14474
198 3 3.12657 14.274 5.2163
226 3 0.39939 14.307 5.17828
278 3 4.48614 18.193 7.34692
274 3 3.18865 15.8219 7.33096
256 3 0.483156 15.8122 7.28945
258 3 1.80862 18.1809 7.37444
298 3 4.49277 16.5551 9.45661
326 3 1.78807 16.6287 9.36147
294 3 3.09367 14.2106 9.39729
322 3 0.370135 14.2853 9.41815
93 2 4.72785 16.2166 12.787
58 1 4.95608 14.0892 13.1881
61 1 4.312 16.818 13.3455
63 1 0.869593 14.5958 13.4364
57 1 4.1178 16.4027 12.021
8 1 2.1303 18.0361 11.9865
68 2 2.07137 18.5669 12.8435
9 1 1.48932 14.0754 12.0605
114 3 7.11905 2.65867 0.929762
135 3 9.74561 2.63693 1.02573
159 3 8.54984 1.84031 3.01861
189 3 7.11705 4.11743 3.12957
163 3 9.90897 4.18642 3.0736
186 3 5.87725 1.85699 3.07982
110 3 5.86269 0.244615 0.889996
131 3 8.60836 0.306223 0.892003
210 3 7.23691 2.63374 5.18115
231 3 9.8921 2.64607 5.23232
227 3 8.52383 0.277725 5.25015
206 3 5.80751 0.291117 5.24668
282 3 5.76139 1.88965 7.35808
254 3 8.5753 1.90422 7.40175
286 3 7.23251 4.1658 7.36868
259 3 9.84584 4.18708 7.41267
306 3 7.08996 2.54787 9.46568
327 3 9.76227 2.67158 9.48794
323 3 8.62664 0.357339 9.40856
302 3 5.76885 0.376781 9.4972
64 1 7.2791 3.15576 11.6049
27 1 8.18189 1.34009 11.9506
60 1 7.08083 2.74671 13.1677
96 2 7.83724 2.72213 12.4538
79 2 8.61143 0.383001 11.6764
23 1 8.70057 4.54482 12.932
59 1 10.507 0.145166 12.2119
120 3 9.81836 7.22005 0.9802
125 3 7.21755 7.26342 1.00799
172 3 8.49668 6.58646 3.18426
153 3 7.14402 8.87273 3.0972
176 3 9.91662 8.74236 3.13984
149 3 5.82883 6.53586 3.13757
100 3 8.45637 4.90959 1.08232
121 3 5.76274 4.86175 1.05301
216 3 10.0257 7.25482 5.31131
221 3 7.18252 7.25356 5.27896
196 3 8.45665 4.95796 5.18678
217 3 5.80317 5.00997 5.25532
249 3 7.09056 8.79929 7.40055
272 3 9.94067 8.79466 7.41848
245 3 5.85194 6.49129 7.44479
265 3 8.49818 6.54237 7.35882
317 3 7.21507 7.25715 9.54512
312 3 9.76521 7.13292 9.51457
313 3 5.82878 4.8247 9.55728
291 3 8.54383 4.89664 9.50756
39 1 8.2599 7.93804 12.1462
19 1 8.64189 6.01598 13.311
83 2 7.59461 7.26707 12.2964
35 1 6.95874 7.81613 12.8893
75 2 9.19448 5.20744 13.485
16 1 10.6015 4.78059 12.0552
113 3 7.29478 11.8958 0.981081
136 3 9.85129 11.978 1.00135
160 3 8.61652 11.1317 3.15705
190 3 7.19744 13.4971 3.06126
164 3 9.88263 13.4806 3.07662
185 3 5.89081 11.1971 2.96484
132 3 8.5907 9.60124 1.05359
109 3 5.93738 9.51626 1.03225
209 3 7.1899 11.8934 5.21996
232 3 9.94216 11.8749 5.29798
205 3 5.92978 9.61245 5.18962
228 3 8.51577 9.63761 5.2369
253 3 8.48194 11.1564 7.34892
285 3 7.18363 13.5495 7.33108
260 3 9.88749 13.5434 7.36168
281 3 5.86856 11.1544 7.41987
305 3 7.29541 12.0279 9.4307
328 3 9.93537 11.9582 9.41215
324 3 8.50284 9.5656 9.41385
301 3 5.85126 9.59993 9.45952
70 2 8.8223 10.0515 12.497
10 1 8.4891 10.7392 11.8852
14 1 8.18799 10.3461 13.24
25 1 8.09586 13.5431 13.5779
36 1 10.3228 9.58664 11.9111
90 2 7.19008 11.1701 14.2495
50 1 6.41234 11.7271 13.8412
52 1 8.29281 13.6516 11.9742
54 1 6.76061 10.3666 14.8519
119 3 9.95569 16.6781 1.0454
126 3 7.29458 16.5946 0.947787
154 3 7.17314 18.2413 3.13238
171 3 8.50391 15.8741 3.01866
175 3 9.8866 18.2011 3.05806
150 3 5.87116 15.9205 3.04269
99 3 8.56002 14.2198 0.989673
122 3 5.93356 14.4322 0.969079
215 3 9.97778 16.629 5.18952
222 3 7.19206 16.7122 5.17921
195 3 8.55377 14.2989 5.12468
218 3 5.86739 14.3964 5.14696
271 3 9.84668 18.1868 7.31576
246 3 5.84433 15.8995 7.34777
266 3 8.62373 15.8756 7.39683
250 3 7.16728 18.2102 7.44907
318 3 7.20688 16.6399 9.50549
311 3 9.83377 16.6302 9.46586
292 3 8.5401 14.2427 9.44358
314 3 5.83232 14.3327 9.41746
43 1 6.12525 16.9158 12.3003
87 2 7.21804 16.8314 12.1013
47 1 7.68947 15.9799 12.3528
31 1 8.12828 18.1765 11.8772
77 2 8.507 14.1482 12.8215
20 1 10.5782 14.0944 12.2613
107 3 12.5601 2.7642 0.927678
127 3 15.2834 2.59643 0.965954
151 3 13.8591 1.83913 2.94571
155 3 15.2295 4.23356 3.04356
183 3 12.5234 4.19361 3.04316
179 3 11.163 1.83052 3.05648
123 3 13.9106 0.341432 0.888132
103 3 11.3151 0.277835 0.960042
203 3 12.5997 2.55874 5.16388
223 3 15.3845 2.63059 5.1484
219 3 13.9369 0.329787 5.25553
199 3 11.2853 0.268368 5.26805
247 3 13.9692 1.89954 7.34707
251 3 15.3058 4.14305 7.30734
279 3 12.5582 4.1727 7.38195
275 3 11.2556 1.87003 7.37003
319 3 15.2007 2.62016 9.44666
299 3 12.6833 2.55766 9.47341
315 3 14.0933 0.225945 9.52779
295 3 11.2593 0.232538 9.44412
85 2 12.4216 2.42169 11.9677
45 1 13.2193 2.64459 12.6248
12 1 11.7359 3.69079 11.9245
41 1 12.1178 1.19709 11.6667
66 2 14.3167 2.63945 13.6825
2 1 14.7387 1.79318 13.1692
67 2 11.4397 0.035745 11.7232
6 1 14.6938 3.41164 13.5555
32 1 15.6664 1.00909 11.6633
80 2 15.543 0.732001 12.537
69 2 15.8646 4.60129 12.6321
29 1 15.5131 4.32753 11.85
115 3 15.2219 7.22519 0.944966
144 3 12.628 7.22482 0.965581
168 3 12.6699 8.87609 3.07738
187 3 13.9461 6.43883 3.02051
192 3 15.3369 8.81278 3.03068
148 3 11.2197 6.48466 3.08027
139 3 11.1569 4.95438 0.996675
111 3 13.8965 4.89901 0.917122
211 3 15.187 7.27707 5.19063
240 3 12.5777 7.29899 5.16844
207 3 13.9081 4.89311 5.19612
235 3 11.2398 4.97405 5.23578
287 3 15.3193 8.85878 7.34687
283 3 13.9777 6.4402 7.3549
244 3 11.245 6.5074 7.40982
264 3 12.6042 8.89693 7.37907
336 3 12.6367 7.24538 9.52309
307 3 15.3055 7.25939 9.39087
331 3 11.145 4.92668 9.43727
303 3 13.915 4.85828 9.37538
37 1 12.2393 6.28056 12.0196
33 1 13.591 7.1131 12.101
7 1 11.8105 8.71245 12.1345
81 2 12.6746 7.08345 11.8114
72 2 11.5187 4.71774 11.6757
74 2 15.3632 7.30363 11.8882
18 1 15.5615 6.31819 12.1587
22 1 16.0338 7.89573 12.3559
108 3 12.5676 12.0501 0.910426
128 3 15.3492 12.0946 0.879596
152 3 13.9123 11.2139 2.9152
156 3 15.2229 13.5181 3.06811
184 3 12.6277 13.6023 3.0446
180 3 11.2951 11.0824 3.01901
124 3 13.8965 9.50445 0.940714
104 3 11.1628 9.49759 0.976271
204 3 12.6183 11.9898 5.20063
224 3 15.2281 11.923 5.09527
200 3 11.2044 9.58387 5.21614
220 3 13.9681 9.69284 5.21013
252 3 15.2902 13.4677 7.27639
276 3 11.24 11.1578 7.35676
248 3 13.9633 11.1537 7.41803
280 3 12.5174 13.4763 7.41538
300 3 12.542 11.9573 9.46846
320 3 15.3937 11.8873 9.42725
316 3 14.0003 9.56118 9.39037
296 3 11.2015 9.65255 9.44328
86 2 12.8125 11.8256 11.7282
42 1 13.7573 11.8167 12.0355
24 1 11.8258 13.1497 11.994
82 2 15.3654 11.8638 12.3518
46 1 12.2098 11.0164 11.9442
84 2 11.3254 9.59492 11.8728
34 1 15.9324 11.0798 12.5948
5 1 15.9945 12.562 12.4202
116 3 15.3039 16.6892 0.94968
143 3 12.6806 16.5132 0.908249
167 3 12.5061 18.0884 3.02137
188 3 13.9081 15.8749 3.14144
191 3 15.3097 18.2252 3.02732
147 3 11.3228 15.8326 2.97608
112 3 13.9323 14.3141 1.04766
140 3 11.2493 14.2906 1.00589
212 3 15.2294 16.6302 5.24038
239 3 12.5892 16.5971 5.29075
208 3 13.8966 14.297 5.25111
236 3 11.1699 14.3407 5.23124
284 3 13.9585 15.8145 7.30068
263 3 12.5434 18.1386 7.39997
243 3 11.2825 15.7839 7.41958
288 3 15.2111 18.2196 7.35955
335 3 12.7192 16.5166 9.47318
308 3 15.3173 16.5601 9.37352
332 3 11.1967 14.3722 9.54113
304 3 14.0049 14.2679 9.41454
44 1 13.6329 16.3338 12.1422
88 2 12.7256 16.3434 11.9085
48 1 12.4715 15.3321 12.0836
3 1 11.704 17.7993 11.813
92 2 15.5973 16.0606 12.5697
56 1 15.965 15.7859 11.7076
40 1 15.7345 17.0075 12.6565
76 2 11.4362 14.0478 11.804
