ITEM: TIMESTEP
120000000
ITEM: NUMBER OF ATOMS
336
ITEM: BOX BOUNDS pp pp pp
0.0000000000000000e+00 1.6167135238600000e+01
0.0000000000000000e+00 1.8668199539200000e+01
0.0000000000000000e+00 2.5747400283800001e+01
ITEM: ATOMS id type x y z
117 3 1.81122 2.65049 0.911533
141 3 4.52289 2.57755 0.986164
145 3 3.2396 1.82042 3.03809
165 3 4.50037 4.12578 3.06799
173 3 1.77483 4.18907 2.98114
169 3 0.46434 1.82013 3.05179
97 3 0.472462 0.409139 0.940688
138 3 3.24192 0.270233 0.997978
213 3 1.84429 2.66966 5.165
237 3 4.48815 2.6282 5.21526
234 3 3.11559 0.255036 5.24467
193 3 0.420021 0.310723 5.13799
261 3 4.53802 4.13326 7.35243
241 3 3.05934 1.8942 7.35063
269 3 1.79976 4.15506 7.31137
267 3 0.432022 1.88774 7.33456
333 3 4.4874 2.62105 9.53036
309 3 1.77724 2.70156 9.46141
290 3 0.49102 0.308995 9.31059
330 3 3.23731 0.226877 9.51752
4 1 2.36673 0.793882 12.5974
91 2 2.80141 2.7416 12.6951
28 1 0.265931 0.627256 12.7598
55 1 3.55672 3.26919 13.3612
51 1 3.14793 2.61918 11.7968
89 2 5.27774 4.26577 12.82
38 1 5.35166 3.86006 11.8535
105 3 4.47447 7.29193 1.0091
133 3 1.91599 7.26482 0.863878
177 3 3.22342 6.5245 3.00834
181 3 4.49578 8.85005 3.04166
161 3 1.83175 8.88702 2.99246
157 3 0.499488 6.49682 2.95094
129 3 0.412601 4.88727 0.906348
101 3 3.10482 4.89738 0.973274
201 3 4.48132 7.35735 5.16078
229 3 1.77179 7.33002 5.19573
197 3 3.10545 4.9452 5.13154
225 3 0.44234 5.0044 5.11593
257 3 1.85626 8.78654 7.34643
277 3 4.47034 8.79765 7.27818
273 3 3.17853 6.53251 7.26648
255 3 0.439946 6.54106 7.37829
297 3 4.48261 7.3845 9.47883
325 3 1.83747 7.31735 9.42192
293 3 3.14421 4.98977 9.34521
321 3 0.425089 4.96512 9.40545
1 1 5.22677 8.69424 11.633
65 2 5.33145 8.85332 12.7578
30 1 2.51447 5.80543 11.6778
26 1 2.45207 6.51905 12.8879
78 2 2.9095 5.82067 12.6007
73 2 0.989566 8.99719 12.7061
49 1 4.78676 5.10707 12.5551
17 1 1.40501 9.04127 11.7942
13 1 0.631051 4.6723 12.5642
118 3 1.80678 12.0872 0.820958
142 3 4.58543 12.0375 0.952712
146 3 3.16886 11.1998 3.03117
166 3 4.4923 13.5273 3.01172
174 3 1.8006 13.4939 3.0497
170 3 0.551704 11.1122 2.88299
137 3 3.16791 9.62071 0.951354
98 3 0.401346 9.58854 0.915919
214 3 1.7989 11.9469 5.10858
238 3 4.56743 11.8179 5.19402
194 3 0.430848 9.59905 5.20136
233 3 3.11609 9.67279 5.19313
268 3 0.505452 11.1582 7.25071
242 3 3.09346 11.1876 7.31773
270 3 1.74541 13.5231 7.33106
262 3 4.5326 13.4848 7.28495
310 3 1.74316 11.9077 9.44326
334 3 4.48867 12.0255 9.39624
329 3 3.12438 9.55226 9.32656
289 3 0.49536 9.57136 9.32385
94 2 5.16519 13.1594 12.6915
71 2 3.46231 10.9649 12.7323
11 1 3.28528 11.1933 11.7856
53 1 4.83085 9.65867 12.7611
21 1 1.67059 9.41925 13.2489
15 1 3.98971 11.8702 12.8976
62 1 5.36023 13.166 11.6138
95 2 1.09139 13.8074 12.789
58 1 5.02015 13.9782 13.1317
106 3 4.41019 16.685 0.969592
134 3 1.81417 16.7301 0.931562
162 3 1.82479 18.2083 3.04009
178 3 3.11921 15.9148 3.0746
182 3 4.56629 18.1972 3.03116
158 3 0.546574 15.8586 3.03385
102 3 3.14562 14.2739 0.958037
130 3 0.534337 14.3398 0.930218
202 3 4.49496 16.6026 5.28102
230 3 1.81678 16.7484 5.17049
198 3 3.15236 14.2718 5.19686
226 3 0.394852 14.317 5.19344
256 3 0.45027 15.8124 7.28184
274 3 3.17173 15.8141 7.32331
278 3 4.46886 18.1842 7.36511
258 3 1.83982 18.1746 7.39393
326 3 1.78031 16.6337 9.36684
298 3 4.48786 16.5559 9.44015
294 3 3.08282 14.225 9.38334
322 3 0.384307 14.2861 9.41218
61 1 4.3452 16.6982 13.4581
63 1 0.803973 14.5919 13.258
93 2 4.65719 16.1696 12.7974
57 1 4.11686 16.3955 12.0243
9 1 1.39873 14.1493 11.8587
8 1 2.13259 17.9691 11.9943
68 2 2.07047 18.502 12.8097
114 3 7.13157 2.66805 0.966405
135 3 9.75749 2.64592 1.00436
159 3 8.5251 1.84881 3.03005
189 3 7.11759 4.13695 3.14086
163 3 9.89922 4.17379 3.08214
186 3 5.88664 1.87141 3.10846
110 3 5.83704 0.252962 0.904637
131 3 8.59994 0.325749 0.873073
210 3 7.2336 2.63497 5.17104
231 3 9.89425 2.64684 5.23706
227 3 8.52863 0.269422 5.25364
206 3 5.81388 0.302087 5.2514
282 3 5.75237 1.91039 7.34738
286 3 7.21563 4.163 7.36157
254 3 8.55767 1.87699 7.40419
259 3 9.83814 4.17826 7.40761
327 3 9.7397 2.68161 9.50449
306 3 7.09072 2.5605 9.44998
323 3 8.61868 0.34274 9.41974
302 3 5.78565 0.363497 9.51023
27 1 8.25646 1.18615 12.049
64 1 7.3715 3.19705 11.675
96 2 7.80202 2.69475 12.5058
60 1 7.03038 2.71182 13.0861
79 2 8.61012 0.363602 11.672
23 1 8.84835 4.50309 13.037
59 1 10.5268 0.225447 12.2945
120 3 9.81305 7.19225 0.977919
125 3 7.22249 7.27508 1.01223
153 3 7.13104 8.87119 3.05663
172 3 8.52032 6.58362 3.16696
176 3 9.89745 8.77356 3.14707
149 3 5.81045 6.51878 3.1336
100 3 8.45922 4.91083 1.08315
121 3 5.74239 4.85198 1.04507
216 3 10.0057 7.22172 5.31087
221 3 7.2036 7.26051 5.2512
196 3 8.45309 4.97632 5.20294
217 3 5.81694 5.02302 5.26561
249 3 7.10809 8.8147 7.41224
272 3 9.968 8.79643 7.41524
245 3 5.86616 6.49172 7.4386
265 3 8.48031 6.5419 7.36392
312 3 9.7502 7.13464 9.5121
317 3 7.22595 7.23852 9.55731
291 3 8.55703 4.90369 9.53066
313 3 5.82795 4.82233 9.55259
35 1 6.84735 7.87428 13.0973
19 1 8.68984 6.01723 13.1945
39 1 8.169 7.95108 12.267
83 2 7.56827 7.22613 12.3016
75 2 9.21217 5.17577 13.4542
16 1 10.6427 4.82661 12.1849
113 3 7.31849 11.8984 1.00874
136 3 9.84261 11.9801 1.01973
160 3 8.61252 11.1366 3.17017
190 3 7.19615 13.4891 3.03874
164 3 9.86603 13.4858 3.08811
185 3 5.88453 11.1717 2.94915
109 3 5.95879 9.51123 1.01812
132 3 8.60532 9.60306 1.04635
209 3 7.18238 11.8903 5.21506
232 3 9.93635 11.8874 5.29916
228 3 8.5335 9.61626 5.23457
205 3 5.91838 9.6066 5.1958
253 3 8.46843 11.1663 7.32794
285 3 7.19485 13.5423 7.33342
260 3 9.90234 13.5329 7.37332
281 3 5.85775 11.1418 7.39268
328 3 9.95473 11.9379 9.38896
305 3 7.29094 12.0303 9.42739
301 3 5.85265 9.591 9.44786
324 3 8.51432 9.55669 9.38817
14 1 8.2503 10.3515 13.1954
70 2 8.85534 10.0038 12.4011
10 1 8.59194 10.8332 11.9399
90 2 7.15128 11.1588 14.326
50 1 6.53767 11.6821 13.7907
36 1 10.2616 9.70625 11.8366
25 1 8.00595 13.723 13.4466
52 1 8.2522 13.5341 11.9358
54 1 6.68151 10.3784 14.7635
119 3 9.97318 16.6595 1.04367
126 3 7.29795 16.5788 0.960983
171 3 8.52781 15.8506 3.0094
154 3 7.16607 18.2364 3.14492
175 3 9.87618 18.1891 3.04792
150 3 5.86458 15.9296 3.02774
99 3 8.55767 14.2391 0.987439
122 3 5.94556 14.4375 0.954487
215 3 9.97697 16.6216 5.17907
222 3 7.21505 16.7059 5.16434
218 3 5.8479 14.4035 5.1563
195 3 8.51772 14.3055 5.10417
271 3 9.83537 18.1896 7.32073
246 3 5.86219 15.9156 7.32886
266 3 8.62984 15.8622 7.38806
250 3 7.16567 18.1954 7.41183
318 3 7.22929 16.6257 9.48681
311 3 9.83487 16.6355 9.483
314 3 5.84908 14.3259 9.41274
292 3 8.56345 14.2189 9.47459
87 2 7.22405 16.8219 12.1055
47 1 7.77642 15.9093 12.4024
43 1 6.13081 16.8134 12.3701
31 1 8.00711 18.2154 12.0812
77 2 8.51384 14.2346 12.8139
20 1 10.5252 14.2775 12.298
107 3 12.5773 2.75419 0.92177
127 3 15.2693 2.60536 0.961641
151 3 13.8514 1.84547 2.97748
155 3 15.2217 4.23581 3.03457
183 3 12.5419 4.17926 3.06642
179 3 11.176 1.81418 3.06978
123 3 13.9006 0.344343 0.877393
103 3 11.3163 0.310653 0.97243
203 3 12.5773 2.56151 5.16895
223 3 15.3705 2.63723 5.13807
219 3 13.9285 0.333459 5.2725
199 3 11.2793 0.241681 5.28783
251 3 15.2906 4.16189 7.30696
247 3 14.0058 1.90736 7.35096
279 3 12.5471 4.12243 7.36855
275 3 11.2309 1.86157 7.38741
299 3 12.6928 2.53663 9.4668
319 3 15.1793 2.63489 9.44578
315 3 14.0836 0.236379 9.51579
295 3 11.2933 0.264528 9.43258
45 1 13.2118 2.55187 12.7359
12 1 11.7019 3.54634 11.8318
41 1 12.2396 1.47986 11.76
85 2 12.4445 2.39485 11.9258
6 1 14.71 3.51031 13.5512
66 2 14.2851 2.61264 13.6272
32 1 15.6401 0.989862 11.4524
2 1 14.8353 1.82437 13.4086
80 2 15.5386 0.735214 12.4932
29 1 15.5139 4.2884 11.7792
67 2 11.4643 0.0210529 11.6996
115 3 15.2236 7.24996 0.949601
144 3 12.6143 7.21871 0.958087
187 3 13.9276 6.4441 3.03269
192 3 15.3448 8.83496 3.00932
168 3 12.668 8.88814 3.05719
148 3 11.224 6.48404 3.04934
111 3 13.9053 4.91182 0.907014
139 3 11.1541 4.93723 0.989425
211 3 15.1896 7.26821 5.16749
240 3 12.5621 7.28598 5.15337
235 3 11.2393 4.96058 5.24107
207 3 13.9335 4.89094 5.20167
287 3 15.3184 8.87421 7.35064
283 3 13.9676 6.41729 7.34192
244 3 11.2492 6.48977 7.40955
264 3 12.6211 8.91157 7.39847
307 3 15.3004 7.24309 9.40832
336 3 12.6322 7.2143 9.50761
303 3 13.9037 4.84987 9.36101
331 3 11.1478 4.94119 9.46126
37 1 12.0862 6.15575 12.0257
81 2 12.6207 7.09265 11.8188
33 1 13.6279 7.06838 12.0008
7 1 11.8579 8.80128 12.1889
74 2 15.4273 7.30121 11.8584
72 2 11.4888 4.78413 11.7127
18 1 15.5992 6.39563 12.2252
69 2 15.7932 4.70208 12.6765
22 1 15.9825 7.90936 12.3945
108 3 12.583 12.0331 0.911183
128 3 15.3681 12.0916 0.89079
152 3 13.9371 11.2442 2.9125
156 3 15.2233 13.5061 3.07882
184 3 12.6385 13.5905 3.03092
180 3 11.2846 11.0767 3.01757
104 3 11.1628 9.49056 0.97105
124 3 13.8956 9.53293 0.922786
204 3 12.5916 11.9621 5.20615
224 3 15.2349 11.9355 5.10894
220 3 13.9607 9.69122 5.21742
200 3 11.2101 9.58589 5.20645
276 3 11.2283 11.1438 7.35402
252 3 15.2843 13.4564 7.28995
248 3 13.9455 11.1545 7.40888
280 3 12.5261 13.4968 7.39837
320 3 15.38 11.9144 9.41221
300 3 12.5315 11.9714 9.46969
316 3 13.9884 9.5663 9.39413
296 3 11.2394 9.64676 9.44395
86 2 12.7264 11.8248 11.6976
84 2 11.3348 9.65866 11.8461
42 1 13.738 11.8914 11.9583
24 1 11.7981 13.1501 11.9352
82 2 15.3614 11.8169 12.4364
46 1 12.1749 10.9914 11.8855
34 1 15.9265 11.0304 12.679
5 1 16.052 12.5204 12.4412
116 3 15.3045 16.6888 0.914729
143 3 12.7078 16.5078 0.91091
188 3 13.9094 15.8864 3.12154
167 3 12.5284 18.0851 3.02248
191 3 15.2982 18.2067 3.0028
147 3 11.3188 15.849 2.97842
112 3 13.9534 14.3417 1.05398
140 3 11.233 14.2736 1.00483
212 3 15.2753 16.635 5.24981
239 3 12.6038 16.5991 5.27801
208 3 13.8971 14.2927 5.26266
236 3 11.1642 14.3369 5.21852
284 3 13.9441 15.7954 7.31774
288 3 15.2166 18.2446 7.3534
263 3 12.5378 18.1277 7.41074
243 3 11.2791 15.827 7.42937
308 3 15.3036 16.589 9.36792
335 3 12.7338 16.5341 9.46808
304 3 14.0152 14.2568 9.40762
332 3 11.2001 14.3405 9.5261
88 2 12.6788 16.3536 11.919
44 1 13.6612 16.3787 12.207
48 1 12.5262 15.3496 12.1058
56 1 15.9308 15.8453 11.6412
92 2 15.5958 16.0778 12.5715
3 1 11.6942 17.7609 11.8758
40 1 15.7613 17.0107 12.6669
76 2 11.4761 14.0613 11.8141
