ITEM: TIMESTEP
120000000
ITEM: NUMBER OF ATOMS
336
ITEM: BOX BOUNDS pp pp pp
0.0000000000000000e+00 1.6167135238600000e+01
0.0000000000000000e+00 1.8668199539200000e+01
0.0000000000000000e+00 2.5747400283800001e+01
ITEM: ATOMS id type x y z
117 3 1.80301 2.66589 0.90946
141 3 4.5247 2.58153 0.975572
145 3 3.22299 1.83679 3.04987
165 3 4.48868 4.12997 3.06642
173 3 1.78046 4.20192 2.97906
169 3 0.477107 1.86029 3.05401
97 3 0.455801 0.418423 0.929114
138 3 3.25368 0.272637 1.00027
213 3 1.84865 2.66781 5.14728
237 3 4.48718 2.63134 5.23194
193 3 0.421882 0.311928 5.16748
234 3 3.09263 0.250944 5.23104
261 3 4.50861 4.15749 7.33927
241 3 3.06471 1.89931 7.35477
269 3 1.78417 4.15012 7.29705
267 3 0.431118 1.87665 7.34179
333 3 4.48044 2.6206 9.53617
309 3 1.77963 2.7011 9.46071
290 3 0.494874 0.309365 9.31285
330 3 3.24541 0.219639 9.50977
55 1 3.71058 3.28936 13.2217
28 1 0.253175 0.635885 12.7483
38 1 5.22276 3.91867 11.9017
91 2 2.85223 2.72551 12.7138
51 1 3.0963 2.75955 11.844
4 1 2.46275 0.678478 12.768
89 2 5.31064 4.27507 12.9075
13 1 0.668885 4.56812 12.619
105 3 4.47067 7.30293 1.00786
133 3 1.93097 7.24158 0.879107
177 3 3.21793 6.5388 3.01392
181 3 4.47554 8.84357 3.02476
161 3 1.83901 8.85618 3.0131
157 3 0.506021 6.5047 2.95081
129 3 0.404859 4.87464 0.874371
101 3 3.11762 4.8905 0.965604
201 3 4.47617 7.36817 5.16189
229 3 1.77337 7.32216 5.19504
197 3 3.11401 4.9364 5.15926
225 3 0.449717 4.98282 5.15145
257 3 1.8586 8.79197 7.33103
277 3 4.48108 8.81425 7.26931
273 3 3.17395 6.55149 7.28846
255 3 0.457415 6.50863 7.3749
297 3 4.48751 7.38296 9.45944
325 3 1.83995 7.33173 9.40877
293 3 3.14414 4.98706 9.34203
321 3 0.421255 4.95121 9.42374
30 1 2.55447 5.92525 11.6751
26 1 2.34406 6.57517 13.032
1 1 5.19998 8.66448 11.6719
65 2 5.31266 8.84461 12.7276
78 2 2.86844 5.81275 12.6469
49 1 4.77031 5.11287 12.8336
73 2 1.00042 8.9897 12.7077
17 1 1.32465 9.13784 11.7948
118 3 1.7944 12.0902 0.812402
142 3 4.59086 12.0391 0.950261
146 3 3.16404 11.1821 3.00951
174 3 1.80552 13.4747 3.05366
166 3 4.50483 13.5359 3.01865
170 3 0.539591 11.1251 2.89154
137 3 3.14403 9.61944 0.93969
98 3 0.385945 9.56496 0.895029
214 3 1.79868 11.9639 5.10881
238 3 4.58079 11.8281 5.18946
233 3 3.11245 9.67011 5.18442
194 3 0.445957 9.58467 5.20791
270 3 1.76881 13.5283 7.32359
268 3 0.498645 11.1705 7.25116
242 3 3.10503 11.1701 7.32815
262 3 4.52609 13.4934 7.28398
310 3 1.73702 11.9023 9.44222
334 3 4.46997 12.0366 9.4204
329 3 3.127 9.56464 9.32862
289 3 0.503022 9.57446 9.30842
62 1 5.3306 13.1606 11.6055
5 1 0.0328715 12.5512 12.5303
15 1 4.02586 11.8606 12.8631
21 1 1.62857 9.54052 13.2884
11 1 3.30782 11.1397 11.7748
71 2 3.44957 11.0132 12.7527
94 2 5.15978 13.1371 12.6708
95 2 1.15491 13.7824 12.8162
53 1 4.86797 9.70722 12.7151
106 3 4.40686 16.694 0.954782
134 3 1.80908 16.7277 0.935363
162 3 1.80419 18.1976 3.04077
178 3 3.13868 15.9326 3.0708
182 3 4.56461 18.2122 3.02933
158 3 0.542155 15.8574 3.05602
102 3 3.12361 14.27 0.953985
130 3 0.548925 14.3395 0.914744
202 3 4.47386 16.6195 5.27576
230 3 1.84162 16.7527 5.16529
198 3 3.1207 14.2766 5.21123
226 3 0.403293 14.3105 5.19711
278 3 4.46193 18.185 7.34655
256 3 0.45477 15.8053 7.27049
274 3 3.18419 15.8198 7.32828
258 3 1.83716 18.167 7.3922
298 3 4.49096 16.5549 9.45904
326 3 1.80368 16.6341 9.36178
322 3 0.395547 14.2867 9.39996
294 3 3.08414 14.2236 9.39671
93 2 4.66806 16.1783 12.7849
63 1 0.840331 14.6141 13.2614
57 1 4.12592 16.3455 11.9772
61 1 4.16429 16.6586 13.4604
8 1 2.08232 17.897 11.985
68 2 2.08593 18.5406 12.8648
9 1 1.42366 14.0991 11.919
58 1 4.97013 14.0259 13.1837
114 3 7.14069 2.64073 0.961391
135 3 9.75943 2.63611 1.00484
159 3 8.52836 1.84439 3.03641
189 3 7.1211 4.15563 3.16087
163 3 9.91578 4.17292 3.06721
186 3 5.86734 1.86059 3.0961
110 3 5.83816 0.281107 0.907976
131 3 8.61349 0.342171 0.893995
210 3 7.21748 2.63828 5.19924
231 3 9.89528 2.63233 5.22066
206 3 5.82693 0.309141 5.25098
227 3 8.50425 0.264995 5.24187
282 3 5.72847 1.89047 7.33479
286 3 7.21808 4.13724 7.36159
259 3 9.84026 4.17145 7.42647
254 3 8.5553 1.87904 7.43385
327 3 9.75237 2.69856 9.48393
306 3 7.07589 2.5612 9.45959
302 3 5.79114 0.372737 9.50251
323 3 8.60642 0.345842 9.41654
60 1 6.99757 2.76983 13.1289
64 1 7.29777 3.21729 11.7693
27 1 8.28021 1.32652 11.9923
96 2 7.78778 2.69723 12.4999
79 2 8.62652 0.347758 11.6114
23 1 8.76763 4.37097 13.0646
59 1 10.5294 0.187158 12.1317
120 3 9.80196 7.20072 0.977182
125 3 7.23495 7.24921 0.99545
153 3 7.13622 8.91166 3.08203
172 3 8.51478 6.57814 3.15532
176 3 9.9088 8.75834 3.13777
149 3 5.82408 6.52894 3.11774
100 3 8.46512 4.92214 1.09262
121 3 5.76675 4.86174 1.03239
216 3 9.99758 7.22226 5.29795
221 3 7.20799 7.27565 5.24281
217 3 5.79533 5.02193 5.27403
196 3 8.46002 4.98575 5.19797
265 3 8.46003 6.52494 7.35322
249 3 7.12238 8.82307 7.41549
272 3 9.96206 8.76746 7.41624
245 3 5.86985 6.48259 7.42091
312 3 9.76377 7.13864 9.50817
317 3 7.21659 7.25172 9.54623
291 3 8.5496 4.89423 9.50185
313 3 5.84111 4.83291 9.55866
39 1 8.46047 7.85586 12.1029
35 1 6.92112 7.70706 12.9118
19 1 8.64099 6.11971 13.187
83 2 7.59705 7.23021 12.3189
75 2 9.21418 5.17713 13.4284
16 1 10.6053 4.86083 12.2981
113 3 7.30297 11.9082 1.02399
136 3 9.83599 11.9726 0.999423
160 3 8.61586 11.1336 3.17306
190 3 7.18894 13.4923 3.02415
164 3 9.87088 13.4716 3.09599
185 3 5.89328 11.1645 2.93992
132 3 8.61977 9.58837 1.0508
109 3 5.95622 9.5219 1.00868
209 3 7.19118 11.9007 5.19849
232 3 9.92485 11.9005 5.27366
205 3 5.93534 9.62477 5.19845
228 3 8.53726 9.62118 5.25422
260 3 9.89388 13.5299 7.35619
285 3 7.16587 13.5281 7.34956
281 3 5.85128 11.1384 7.39105
253 3 8.46022 11.1742 7.36173
305 3 7.29009 12.0204 9.43646
328 3 9.95336 11.9383 9.40374
301 3 5.84174 9.56989 9.44604
324 3 8.51459 9.56227 9.38671
70 2 8.84904 9.98906 12.4279
10 1 8.42696 10.693 11.7811
36 1 10.2158 9.55472 11.843
14 1 8.3153 10.2827 13.1431
50 1 6.48505 11.5861 13.8392
90 2 7.08356 11.2137 14.3119
25 1 7.97442 13.7493 13.614
52 1 8.30718 13.5984 12.0135
54 1 6.67325 10.3662 14.7794
119 3 9.93913 16.6574 1.0285
126 3 7.27349 16.6008 0.971119
171 3 8.51144 15.8415 3.024
154 3 7.17557 18.2361 3.16671
175 3 9.86403 18.1954 3.05896
150 3 5.85911 15.9396 3.03271
99 3 8.54996 14.2319 0.990717
122 3 5.96139 14.462 0.965007
215 3 9.96978 16.6137 5.16709
222 3 7.23161 16.7032 5.13761
195 3 8.53994 14.3134 5.10541
218 3 5.83805 14.3955 5.18013
271 3 9.84478 18.1865 7.3295
246 3 5.84796 15.9056 7.31674
266 3 8.64016 15.8777 7.41967
250 3 7.1503 18.1833 7.39249
318 3 7.24844 16.635 9.48047
311 3 9.82803 16.6359 9.4918
314 3 5.83926 14.3204 9.40689
292 3 8.55033 14.2459 9.45975
47 1 7.7046 16.0313 12.3565
31 1 7.94173 18.2605 12.0721
87 2 7.25132 16.816 12.0859
43 1 6.21242 16.9165 12.3653
77 2 8.53072 14.2131 12.8017
20 1 10.5261 14.2378 12.3186
107 3 12.5709 2.7615 0.912505
127 3 15.2643 2.59751 0.963911
151 3 13.8697 1.83784 2.96036
155 3 15.2141 4.22086 3.04862
183 3 12.5284 4.20466 3.07433
179 3 11.1916 1.80841 3.06203
123 3 13.9154 0.345681 0.898709
103 3 11.3184 0.314912 0.95857
203 3 12.5744 2.57221 5.17324
223 3 15.3641 2.63042 5.1422
199 3 11.2705 0.260392 5.28086
219 3 13.9441 0.354557 5.26702
247 3 14.0017 1.91254 7.34487
251 3 15.3197 4.15296 7.29739
279 3 12.5464 4.12147 7.38797
275 3 11.2249 1.87022 7.36782
319 3 15.177 2.63994 9.45729
299 3 12.697 2.56369 9.48097
315 3 14.0602 0.221794 9.50688
295 3 11.2911 0.268016 9.42384
12 1 11.6923 3.64297 11.8507
41 1 12.2848 1.47428 11.9172
45 1 13.1194 2.5726 12.8134
85 2 12.4285 2.3919 11.934
2 1 14.8947 1.92746 13.405
66 2 14.2451 2.68623 13.6293
29 1 15.4619 4.24445 11.8374
6 1 14.8657 3.55099 13.5729
80 2 15.5124 0.764765 12.51
32 1 15.5578 0.953064 11.5469
67 2 11.4343 0.00154231 11.7757
115 3 15.2099 7.24769 0.951466
144 3 12.6144 7.22151 0.941348
168 3 12.6886 8.89205 3.0829
187 3 13.9317 6.46439 3.03187
192 3 15.3339 8.84134 3.04693
148 3 11.225 6.47448 3.04608
111 3 13.9295 4.88031 0.91731
139 3 11.16 4.93211 1.00696
211 3 15.1983 7.26575 5.176
240 3 12.583 7.30056 5.15268
207 3 13.9126 4.87222 5.21636
235 3 11.2489 4.95561 5.24305
287 3 15.3295 8.879 7.33983
283 3 13.9728 6.43834 7.34041
244 3 11.2316 6.4914 7.40824
264 3 12.6318 8.91069 7.37322
307 3 15.2956 7.26103 9.41614
336 3 12.6402 7.22019 9.49752
303 3 13.9163 4.84076 9.36309
331 3 11.1579 4.93176 9.46191
81 2 12.6321 7.14598 11.8338
37 1 12.0798 6.26014 11.9374
33 1 13.6367 7.15422 12.0113
18 1 15.547 6.4783 12.4094
7 1 11.9119 8.67435 12.1111
74 2 15.3972 7.28536 11.8797
72 2 11.4206 4.73113 11.6865
22 1 16.1093 7.87721 12.3673
69 2 15.8234 4.68367 12.7083
108 3 12.5801 12.0421 0.908292
128 3 15.3564 12.0909 0.863644
152 3 13.934 11.2436 2.90107
156 3 15.2364 13.5094 3.08109
184 3 12.6359 13.5821 3.04534
180 3 11.2786 11.1043 3.02918
104 3 11.1577 9.48294 0.978072
124 3 13.8972 9.53692 0.926681
204 3 12.5958 11.9713 5.21123
224 3 15.2374 11.914 5.11682
200 3 11.2088 9.57675 5.19072
220 3 13.9657 9.67771 5.23527
252 3 15.2729 13.4641 7.29463
276 3 11.2454 11.1365 7.36445
248 3 13.967 11.1546 7.40535
280 3 12.5438 13.4696 7.39711
320 3 15.3692 11.9153 9.42141
300 3 12.546 11.9806 9.46833
296 3 11.2084 9.64186 9.4522
316 3 13.9977 9.55647 9.38413
34 1 15.8678 11.0395 12.5994
42 1 13.7847 11.8411 11.9335
82 2 15.3671 11.8469 12.4445
46 1 12.2078 11.0003 11.9025
86 2 12.7616 11.7914 11.7411
24 1 11.8585 13.1067 12.0409
84 2 11.3218 9.62708 11.8468
116 3 15.2942 16.6896 0.94958
143 3 12.7192 16.4958 0.914731
167 3 12.5291 18.0884 3.02757
188 3 13.9109 15.8718 3.11533
191 3 15.3009 18.2038 2.99104
147 3 11.3265 15.8419 2.99167
112 3 13.9417 14.3265 1.0559
140 3 11.232 14.2976 1.00471
212 3 15.279 16.6226 5.24118
239 3 12.5951 16.5843 5.29001
208 3 13.9146 14.3202 5.25432
236 3 11.1841 14.361 5.22625
284 3 13.9499 15.7847 7.33474
243 3 11.2993 15.7989 7.42202
263 3 12.5539 18.1338 7.41228
288 3 15.2186 18.2517 7.37538
308 3 15.3202 16.5646 9.36236
335 3 12.7039 16.5383 9.45234
304 3 14.0122 14.2437 9.40993
332 3 11.2153 14.3302 9.52729
44 1 13.6814 16.2978 12.2394
88 2 12.7108 16.3348 11.9324
56 1 15.8335 15.9789 11.6441
48 1 12.4297 15.3908 12.017
3 1 11.6292 17.7527 11.8492
92 2 15.5392 16.0692 12.5599
40 1 15.7017 17.1222 12.7223
76 2 11.4255 14.0745 11.7919
