ITEM: TIMESTEP
120000000
ITEM: NUMBER OF ATOMS
336
ITEM: BOX BOUNDS pp pp pp
0.0000000000000000e+00 1.6167135238600000e+01
0.0000000000000000e+00 1.8668199539200000e+01
0.0000000000000000e+00 2.5747400283800001e+01
ITEM: ATOMS id type x y z
117 3 1.81368 2.66436 0.898122
141 3 4.50144 2.58443 0.970339
145 3 3.22512 1.82205 3.04362
165 3 4.50669 4.11468 3.08839
173 3 1.7808 4.19832 2.97855
169 3 0.463861 1.82577 3.05214
97 3 0.469099 0.39545 0.936972
138 3 3.23367 0.268246 1.00609
213 3 1.82877 2.67326 5.19674
237 3 4.51075 2.63817 5.19386
234 3 3.10419 0.250944 5.2107
193 3 0.449027 0.33644 5.15192
261 3 4.54414 4.12327 7.35162
269 3 1.80644 4.13892 7.30915
267 3 0.412227 1.86477 7.31186
241 3 3.05964 1.92288 7.33658
333 3 4.50563 2.61488 9.53627
309 3 1.79445 2.70736 9.4539
330 3 3.21214 0.21085 9.5139
290 3 0.488686 0.305135 9.28526
55 1 3.57643 3.13279 13.3255
38 1 5.33463 3.93736 11.909
4 1 2.46971 0.82953 12.6325
91 2 2.86969 2.74379 12.6641
51 1 3.17826 2.53495 11.6932
89 2 5.25964 4.27487 12.8256
28 1 0.408205 0.644663 12.7748
105 3 4.47583 7.29996 1.00704
133 3 1.93771 7.25167 0.847292
177 3 3.22662 6.54133 3.01848
181 3 4.47144 8.84554 3.03331
161 3 1.81999 8.86671 3.00691
157 3 0.500916 6.49033 2.93129
129 3 0.402736 4.8905 0.902134
101 3 3.11424 4.9035 0.966736
201 3 4.49273 7.34638 5.17992
229 3 1.74607 7.33557 5.17062
197 3 3.08895 4.94702 5.13478
225 3 0.428146 5.0009 5.11124
257 3 1.8419 8.79098 7.33164
277 3 4.47252 8.81143 7.27552
273 3 3.1952 6.53435 7.27641
255 3 0.448856 6.51789 7.3881
297 3 4.47498 7.38738 9.4909
325 3 1.83427 7.32089 9.40784
293 3 3.13463 4.98782 9.34369
321 3 0.432826 4.98236 9.41483
78 2 2.87602 5.82097 12.5877
26 1 2.29249 6.54472 12.9184
1 1 5.25532 8.72889 11.7411
65 2 5.28379 8.8458 12.7357
30 1 2.70485 5.78954 11.5798
17 1 1.33612 9.05204 11.7719
73 2 0.972982 9.00813 12.711
49 1 4.73161 5.09869 12.7224
13 1 0.574656 4.72465 12.5554
118 3 1.80653 12.0649 0.822576
142 3 4.59969 12.0375 0.948576
146 3 3.15083 11.2117 3.01403
174 3 1.81942 13.4846 3.02824
166 3 4.46983 13.5076 3.00994
170 3 0.541021 11.1177 2.85822
137 3 3.14565 9.61707 0.945317
98 3 0.395813 9.59368 0.91479
214 3 1.79557 11.9331 5.10174
238 3 4.5528 11.8157 5.19018
194 3 0.421282 9.59263 5.18495
233 3 3.10122 9.67505 5.17742
270 3 1.71478 13.5294 7.31539
242 3 3.11367 11.1844 7.32499
262 3 4.5421 13.4526 7.27248
268 3 0.512931 11.181 7.24296
334 3 4.46099 12.0373 9.39042
310 3 1.75084 11.9259 9.43715
329 3 3.13284 9.55183 9.32623
289 3 0.482338 9.57814 9.32482
21 1 1.63439 9.49802 13.3463
11 1 3.20049 11.2247 11.8192
15 1 4.04295 11.7481 13.0309
53 1 4.77829 9.7011 12.8138
71 2 3.44333 10.979 12.7491
94 2 5.15772 13.18 12.748
62 1 5.34851 13.2229 11.5597
95 2 1.11254 13.7787 12.7863
106 3 4.40803 16.6678 0.976325
134 3 1.81971 16.7376 0.940115
178 3 3.09978 15.9204 3.08375
182 3 4.57279 18.1795 3.03136
162 3 1.82536 18.2161 3.04056
158 3 0.550863 15.8517 3.04274
102 3 3.12866 14.2703 0.963888
130 3 0.511563 14.3539 0.941951
202 3 4.49331 16.6206 5.28983
230 3 1.81213 16.7197 5.17344
198 3 3.12362 14.2853 5.21046
226 3 0.38237 14.303 5.19022
278 3 4.48143 18.1924 7.34958
274 3 3.18146 15.8171 7.32359
256 3 0.466939 15.8347 7.29948
258 3 1.82045 18.1846 7.37778
326 3 1.80396 16.6358 9.35281
298 3 4.50645 16.5631 9.44357
294 3 3.10734 14.2004 9.38349
322 3 0.372958 14.2828 9.40834
93 2 4.70336 16.1841 12.7903
63 1 0.6862 14.7162 13.4228
57 1 4.10157 16.5306 11.9873
61 1 4.27122 16.8294 13.3361
58 1 5.02889 14.0811 13.1223
8 1 2.14107 17.9977 11.9533
68 2 2.09232 18.5229 12.8164
9 1 1.55068 14.0623 12.0429
114 3 7.11899 2.66202 0.942519
135 3 9.76235 2.64473 1.02119
159 3 8.53628 1.83973 3.00897
189 3 7.11718 4.12052 3.13695
163 3 9.9003 4.17958 3.06134
186 3 5.88022 1.85177 3.10129
131 3 8.61412 0.305828 0.881018
110 3 5.84086 0.242898 0.893205
210 3 7.24941 2.63887 5.17707
231 3 9.8991 2.65337 5.21773
206 3 5.79582 0.296841 5.24602
227 3 8.52142 0.271531 5.24365
282 3 5.76357 1.89365 7.34894
254 3 8.56133 1.89652 7.3994
286 3 7.20717 4.17116 7.36552
259 3 9.83689 4.18376 7.41056
306 3 7.10032 2.54861 9.47684
327 3 9.74557 2.66362 9.50163
323 3 8.61171 0.369416 9.41783
302 3 5.78192 0.366078 9.49609
64 1 7.3222 3.18893 11.5956
27 1 8.13594 1.32682 11.9902
60 1 6.97783 2.65637 13.0742
96 2 7.82348 2.70371 12.4592
79 2 8.59325 0.36913 11.6797
23 1 8.70263 4.5348 12.9862
59 1 10.4857 0.246564 12.1694
120 3 9.82784 7.2062 0.984929
125 3 7.22957 7.26719 1.00435
153 3 7.13544 8.86995 3.08934
172 3 8.50444 6.57295 3.17928
176 3 9.9156 8.76335 3.14229
149 3 5.82634 6.53175 3.14
121 3 5.75879 4.85615 1.06093
100 3 8.45047 4.9098 1.08533
216 3 10.0101 7.22685 5.31335
221 3 7.18943 7.25328 5.26297
196 3 8.44926 4.96465 5.19696
217 3 5.8109 5.00726 5.26467
249 3 7.08968 8.80332 7.39706
272 3 9.9525 8.7856 7.4228
245 3 5.8475 6.47684 7.43285
265 3 8.50383 6.53804 7.37332
317 3 7.22413 7.25794 9.55777
312 3 9.75142 7.12527 9.51599
291 3 8.54845 4.87963 9.51097
313 3 5.81696 4.82436 9.53808
83 2 7.55589 7.25284 12.3103
19 1 8.73444 6.00813 13.1641
35 1 6.80404 7.71839 12.9866
39 1 8.26831 7.91188 12.2305
75 2 9.17899 5.21818 13.4809
16 1 10.6761 4.7258 12.2182
113 3 7.30753 11.8955 0.990219
136 3 9.84822 11.968 0.991754
160 3 8.61115 11.1245 3.17088
190 3 7.1968 13.4938 3.04856
164 3 9.87671 13.505 3.08599
185 3 5.87847 11.2034 2.96491
109 3 5.94599 9.52171 1.03376
132 3 8.59535 9.61929 1.0461
209 3 7.17792 11.8863 5.23276
232 3 9.93701 11.8777 5.29722
205 3 5.92555 9.60452 5.19386
228 3 8.53198 9.63896 5.23215
253 3 8.4914 11.1708 7.3432
285 3 7.18267 13.5552 7.32796
260 3 9.89584 13.5501 7.3603
281 3 5.87128 11.1535 7.40169
328 3 9.9394 11.9566 9.39816
305 3 7.29932 12.0279 9.42669
324 3 8.49979 9.56165 9.39517
301 3 5.8777 9.58456 9.45324
10 1 8.55802 10.7475 11.9273
36 1 10.4569 9.60017 11.8744
70 2 8.8534 10.0391 12.4445
14 1 8.11896 10.3349 13.3093
25 1 7.99115 13.6141 13.4409
90 2 7.17596 11.1712 14.2441
50 1 6.43901 11.791 13.8521
52 1 8.30772 13.5562 11.9453
54 1 6.74059 10.3681 14.7546
119 3 9.96736 16.662 1.04529
126 3 7.30279 16.6032 0.948888
154 3 7.16347 18.2403 3.14026
171 3 8.52668 15.8678 3.01763
175 3 9.87455 18.1985 3.0495
150 3 5.85563 15.9271 3.03788
122 3 5.94189 14.4297 0.956928
99 3 8.55969 14.2114 0.977245
215 3 9.97458 16.6441 5.18983
222 3 7.2013 16.7179 5.16133
195 3 8.53645 14.2859 5.11503
218 3 5.87202 14.4036 5.15303
271 3 9.83065 18.1793 7.30977
246 3 5.83647 15.9207 7.33944
266 3 8.63269 15.8721 7.40316
250 3 7.18455 18.1945 7.45417
318 3 7.2154 16.6224 9.50774
311 3 9.82421 16.6389 9.47401
292 3 8.56861 14.2339 9.43915
314 3 5.85061 14.3317 9.40948
87 2 7.19519 16.8133 12.0627
47 1 7.73707 16.0421 12.4612
43 1 6.24463 16.9661 12.2762
31 1 8.0412 18.1283 11.9393
77 2 8.51514 14.1873 12.8638
20 1 10.6028 14.1559 12.2669
107 3 12.5616 2.7548 0.926114
127 3 15.2843 2.59685 0.965338
151 3 13.855 1.85104 2.95337
155 3 15.2468 4.2279 3.04368
183 3 12.5267 4.1966 3.04182
179 3 11.1724 1.82049 3.07235
123 3 13.9059 0.349425 0.885231
103 3 11.3253 0.293372 0.970069
203 3 12.5946 2.56985 5.16618
223 3 15.3631 2.62475 5.14537
219 3 13.9347 0.335309 5.26548
199 3 11.2833 0.258789 5.27973
251 3 15.3065 4.14688 7.29383
247 3 13.9754 1.90783 7.3413
279 3 12.5488 4.15518 7.38328
275 3 11.2668 1.86095 7.36411
299 3 12.7013 2.5536 9.46693
319 3 15.1955 2.63177 9.43191
315 3 14.0995 0.246944 9.5268
295 3 11.2711 0.227174 9.44762
41 1 12.1519 1.27181 11.7521
85 2 12.4311 2.38493 11.9293
45 1 13.2237 2.59825 12.6397
12 1 11.6886 3.66693 11.8134
66 2 14.3203 2.61549 13.6902
6 1 14.6883 3.46393 13.5782
67 2 11.4009 0.0195825 11.7248
2 1 14.8178 1.8294 13.243
32 1 15.8133 0.928553 11.5458
80 2 15.5848 0.736962 12.5427
29 1 15.549 4.32979 11.8252
69 2 15.8342 4.63846 12.6168
115 3 15.2228 7.22486 0.926999
144 3 12.6307 7.21091 0.963691
168 3 12.6698 8.8808 3.07558
187 3 13.9362 6.43632 3.02334
192 3 15.3239 8.81874 3.04763
148 3 11.2308 6.47999 3.06001
139 3 11.1554 4.95638 0.983313
111 3 13.8982 4.89044 0.905074
211 3 15.1943 7.28245 5.20399
240 3 12.5894 7.28745 5.16711
207 3 13.928 4.88597 5.20181
235 3 11.2466 4.96555 5.22949
287 3 15.3106 8.86083 7.34768
283 3 13.9678 6.44445 7.34549
244 3 11.2443 6.49845 7.40142
264 3 12.6189 8.90467 7.37571
336 3 12.6505 7.23492 9.52841
307 3 15.3079 7.26364 9.40359
303 3 13.9202 4.85344 9.36585
331 3 11.1475 4.94194 9.45855
33 1 13.7149 7.0091 12.0514
37 1 12.1941 6.26533 11.9701
81 2 12.6227 7.09105 11.804
7 1 11.7472 8.74403 12.1599
74 2 15.3803 7.28319 11.8443
72 2 11.4951 4.73362 11.7134
18 1 15.6884 6.41133 12.09
22 1 16.1315 7.99408 12.3317
108 3 12.5743 12.0547 0.911063
128 3 15.3519 12.0911 0.885288
152 3 13.9185 11.2318 2.90402
156 3 15.2278 13.5198 3.06088
184 3 12.6251 13.6047 3.05831
180 3 11.278 11.0659 3.0256
104 3 11.149 9.50509 0.961779
124 3 13.9135 9.50746 0.920344
204 3 12.5912 11.9833 5.18774
224 3 15.2289 11.9149 5.08581
200 3 11.2039 9.58568 5.20694
220 3 13.9809 9.70313 5.22424
276 3 11.2379 11.1485 7.35211
252 3 15.3072 13.4644 7.27959
248 3 13.9605 11.1429 7.41847
280 3 12.5118 13.4698 7.40226
320 3 15.384 11.8939 9.41759
300 3 12.5437 11.97 9.47982
296 3 11.2093 9.67393 9.44794
316 3 13.9961 9.56016 9.38847
82 2 15.3644 11.8274 12.4102
84 2 11.3628 9.63734 11.8785
42 1 13.7942 11.8337 11.9475
46 1 12.1837 11.0284 11.9478
86 2 12.8006 11.8028 11.7191
24 1 11.8105 13.109 11.9244
34 1 15.9106 11.0783 12.7223
5 1 15.9822 12.5652 12.3665
116 3 15.3035 16.6912 0.933142
143 3 12.6906 16.52 0.907165
167 3 12.5105 18.0855 3.02017
188 3 13.9228 15.8876 3.13371
191 3 15.3197 18.2307 3.02264
147 3 11.3196 15.8241 2.98328
140 3 11.2392 14.2782 1.009
112 3 13.9257 14.3263 1.02802
212 3 15.2371 16.6393 5.25393
239 3 12.6042 16.5916 5.29535
208 3 13.9029 14.2942 5.24715
236 3 11.1551 14.3513 5.21648
284 3 13.9592 15.8044 7.30552
263 3 12.5584 18.1371 7.39288
288 3 15.2166 18.2298 7.36162
243 3 11.2783 15.8 7.43521
308 3 15.3018 16.5731 9.37347
335 3 12.7187 16.5168 9.47058
332 3 11.1964 14.3696 9.52609
304 3 14.0082 14.2619 9.42297
88 2 12.7164 16.3542 11.9273
48 1 12.4958 15.2891 12.1923
44 1 13.6536 16.3699 12.1211
3 1 11.7291 17.7593 11.7622
56 1 15.9606 15.8092 11.6327
92 2 15.5925 16.0684 12.6023
40 1 15.8146 16.9311 12.6787
76 2 11.4551 14.0688 11.8106
