ITEM: TIMESTEP
120000000
ITEM: NUMBER OF ATOMS
336
ITEM: BOX BOUNDS pp pp pp
0.0000000000000000e+00 1.6167135238600000e+01
0.0000000000000000e+00 1.8668199539200000e+01
0.0000000000000000e+00 2.5747400283800001e+01
ITEM: ATOMS id type x y z
117 3 1.79486 2.66696 0.903104
141 3 4.52937 2.56717 0.942084
145 3 3.19524 1.82776 3.07264
173 3 1.79504 4.19729 2.96608
165 3 4.51125 4.14435 3.05945
169 3 0.475117 1.87226 3.03784
138 3 3.22262 0.284561 0.986047
97 3 0.457128 0.383463 0.892513
213 3 1.86528 2.65065 5.13422
237 3 4.50415 2.59829 5.23448
193 3 0.439282 0.307397 5.1644
234 3 3.1052 0.269836 5.24738
261 3 4.51641 4.16943 7.31902
269 3 1.75257 4.17053 7.30418
267 3 0.440443 1.85045 7.3289
241 3 3.04044 1.93674 7.36166
333 3 4.47459 2.62144 9.50696
309 3 1.80766 2.70397 9.45271
290 3 0.503474 0.324228 9.27217
330 3 3.21279 0.196592 9.50086
28 1 0.31165 0.726089 12.8236
51 1 3.26815 2.71354 11.8606
91 2 2.92387 2.74408 12.696
38 1 5.25378 3.67773 11.8235
55 1 3.59795 3.34186 13.1564
89 2 5.25604 4.28297 12.8192
4 1 2.41653 0.844391 12.7158
13 1 0.519317 4.31018 12.4653
105 3 4.47251 7.34001 0.969203
133 3 1.94573 7.21 0.877628
177 3 3.20033 6.5581 3.00983
181 3 4.49512 8.83075 3.02271
161 3 1.82673 8.86175 2.97063
157 3 0.486717 6.51684 2.91149
129 3 0.397448 4.90051 0.894871
101 3 3.09702 4.86834 0.988225
201 3 4.49846 7.35001 5.20237
229 3 1.7678 7.32364 5.16672
197 3 3.09091 4.9457 5.13769
225 3 0.45274 4.98718 5.1172
257 3 1.83752 8.78661 7.30512
277 3 4.47764 8.81882 7.27305
273 3 3.14522 6.55582 7.31108
255 3 0.44732 6.50488 7.38292
325 3 1.84808 7.2936 9.41909
297 3 4.47228 7.34126 9.48
293 3 3.12514 4.98749 9.36786
321 3 0.448008 4.96038 9.3998
78 2 2.88639 5.8032 12.7021
26 1 2.13534 6.27536 13.0469
1 1 5.18235 8.69915 11.7503
65 2 5.3066 8.87349 12.7689
30 1 2.63804 5.57141 11.7224
49 1 4.69084 4.99122 12.7396
73 2 0.985794 9.02205 12.6809
17 1 1.3025 8.85147 11.7262
118 3 1.79729 12.0954 0.820377
142 3 4.5672 12.0702 0.968716
146 3 3.18391 11.1948 2.9839
174 3 1.81255 13.4709 3.03287
166 3 4.50392 13.5344 3.011
170 3 0.530122 11.1257 2.8585
137 3 3.14903 9.6158 0.920637
98 3 0.392878 9.55295 0.89059
214 3 1.81967 11.9214 5.09349
238 3 4.58119 11.817 5.21245
233 3 3.10118 9.65611 5.18171
194 3 0.453683 9.57025 5.20503
270 3 1.71435 13.5055 7.32924
268 3 0.49274 11.1526 7.23861
242 3 3.10404 11.1693 7.32495
262 3 4.52425 13.4545 7.25741
310 3 1.73512 11.9272 9.39963
334 3 4.45415 12.0485 9.41639
289 3 0.482578 9.55638 9.2952
329 3 3.14544 9.59393 9.36235
11 1 3.34286 11.3226 11.7214
21 1 1.60899 9.55128 13.3365
95 2 1.19377 13.7352 12.7785
62 1 5.34039 13.3258 11.6665
71 2 3.45704 11.0179 12.7617
15 1 4.1872 11.7702 12.8331
94 2 5.19671 13.2055 12.689
53 1 4.73459 9.67782 12.8252
9 1 1.46127 13.9699 12.0069
106 3 4.4142 16.6951 0.96546
134 3 1.83305 16.7147 0.957883
162 3 1.80774 18.1764 3.06424
178 3 3.1194 15.9358 3.04964
182 3 4.55894 18.1919 3.03868
158 3 0.54026 15.8477 3.04637
102 3 3.14746 14.2763 0.951708
130 3 0.525242 14.3406 0.929535
202 3 4.50922 16.6047 5.26701
230 3 1.8416 16.6975 5.15641
226 3 0.398313 14.2761 5.19627
198 3 3.11347 14.2708 5.20333
278 3 4.46433 18.1915 7.33529
256 3 0.489005 15.842 7.24945
274 3 3.18124 15.8084 7.31216
258 3 1.8416 18.1871 7.38814
298 3 4.47602 16.5324 9.46968
326 3 1.81161 16.6513 9.37363
322 3 0.387306 14.3027 9.41279
294 3 3.07502 14.234 9.38686
93 2 4.69681 16.2204 12.8358
57 1 4.0091 16.4554 11.9872
61 1 4.26432 16.7631 13.4623
63 1 0.744591 14.5661 13.2586
58 1 4.89893 14.0461 13.1296
8 1 1.92186 17.8748 12.0135
68 2 2.04208 18.5671 12.8576
114 3 7.11868 2.67977 0.96428
135 3 9.72905 2.64759 1.02189
159 3 8.51711 1.79934 3.04257
189 3 7.11872 4.1449 3.1574
163 3 9.89652 4.16886 3.0919
186 3 5.92619 1.86795 3.09672
110 3 5.85553 0.235097 0.912795
131 3 8.62221 0.326528 0.933169
210 3 7.20201 2.63249 5.17703
231 3 9.89132 2.63508 5.2302
227 3 8.50876 0.276123 5.2202
206 3 5.80208 0.302087 5.24516
282 3 5.76585 1.91148 7.35135
254 3 8.58405 1.88223 7.42668
286 3 7.21598 4.15298 7.36646
259 3 9.85918 4.23293 7.40984
306 3 7.08968 2.5674 9.47827
327 3 9.77835 2.6948 9.49357
323 3 8.60269 0.343472 9.42601
302 3 5.79103 0.380292 9.49698
27 1 8.2654 1.14078 11.9595
96 2 7.81381 2.69606 12.5271
60 1 6.97884 2.99711 13.2221
64 1 7.34279 3.18076 11.6519
79 2 8.59518 0.299912 11.5872
23 1 8.64352 4.41051 13.1168
59 1 10.5825 0.197363 12.2891
120 3 9.82317 7.2203 0.994119
125 3 7.21478 7.25139 0.999041
153 3 7.16376 8.85979 3.06577
172 3 8.49862 6.5887 3.16301
176 3 9.89153 8.77509 3.15007
149 3 5.83834 6.5266 3.11291
121 3 5.7569 4.85548 1.02841
100 3 8.49073 4.9091 1.1037
216 3 9.99846 7.23662 5.32677
221 3 7.16805 7.26315 5.28375
217 3 5.80281 5.02194 5.27701
196 3 8.44561 4.95915 5.19216
265 3 8.47754 6.52273 7.35604
249 3 7.11017 8.8305 7.40849
272 3 9.95973 8.77409 7.40888
245 3 5.84601 6.50501 7.4349
317 3 7.22839 7.26126 9.53864
312 3 9.80073 7.12889 9.53397
291 3 8.55586 4.88379 9.498
313 3 5.84252 4.8412 9.54443
35 1 6.87715 7.65344 12.8806
19 1 8.61988 6.20429 13.4134
83 2 7.60479 7.21492 12.3419
39 1 8.42888 7.79517 12.0865
75 2 9.19198 5.22289 13.5089
16 1 10.5854 4.76691 12.0904
113 3 7.30952 11.9304 0.987876
136 3 9.8639 11.9616 1.00496
160 3 8.60291 11.1363 3.17462
190 3 7.15407 13.5016 3.03789
164 3 9.88161 13.4948 3.06015
185 3 5.86891 11.1858 2.9315
132 3 8.57877 9.57961 1.02786
109 3 5.97538 9.54351 1.02229
209 3 7.21414 11.9071 5.18831
232 3 9.94023 11.871 5.31397
205 3 5.93869 9.59051 5.18849
228 3 8.52469 9.61357 5.21883
260 3 9.86452 13.5205 7.34328
253 3 8.46298 11.1461 7.34061
281 3 5.85318 11.155 7.35009
285 3 7.16808 13.5388 7.36436
305 3 7.29808 12.0281 9.45075
328 3 9.95023 11.9372 9.41638
301 3 5.8475 9.60862 9.41718
324 3 8.46842 9.57446 9.38809
70 2 8.82085 10.0141 12.4294
36 1 10.3824 9.51734 11.9728
14 1 8.14073 10.3347 13.0728
10 1 8.50607 10.597 11.7075
25 1 8.19791 13.5942 13.6677
90 2 7.11774 11.2055 14.2523
50 1 6.28125 11.6847 13.9283
52 1 8.28898 13.5333 11.8795
54 1 6.73023 10.4761 14.7714
119 3 9.9501 16.6642 1.02343
126 3 7.26778 16.6002 0.970329
154 3 7.19259 18.2426 3.11918
171 3 8.53298 15.8392 2.99929
175 3 9.8792 18.2141 3.05366
150 3 5.84117 15.9083 3.06424
122 3 5.94577 14.4604 0.954423
99 3 8.5704 14.242 0.951494
215 3 9.96474 16.5914 5.20535
222 3 7.23277 16.6849 5.15276
195 3 8.5622 14.3089 5.13981
218 3 5.87675 14.4025 5.16188
271 3 9.84142 18.1986 7.32837
246 3 5.83568 15.905 7.34179
266 3 8.62378 15.8817 7.41046
250 3 7.14363 18.1945 7.41327
311 3 9.83946 16.6497 9.45568
318 3 7.21968 16.6326 9.48261
314 3 5.84268 14.3216 9.38578
292 3 8.55912 14.2261 9.43369
47 1 7.74685 16.0711 12.3533
87 2 7.18436 16.8927 12.0271
31 1 7.91203 18.312 11.9517
43 1 6.17906 16.8205 12.2005
77 2 8.58789 14.1084 12.8307
20 1 10.5378 14.1802 12.1431
107 3 12.5373 2.76364 0.919317
127 3 15.2576 2.59965 0.962502
151 3 13.8752 1.82537 2.95434
183 3 12.5249 4.21448 3.06648
155 3 15.2266 4.21495 3.04468
179 3 11.1931 1.80859 3.05099
123 3 13.9159 0.375153 0.883889
103 3 11.3221 0.308652 0.970602
203 3 12.5698 2.60997 5.16475
223 3 15.3446 2.64045 5.14236
219 3 13.9393 0.342718 5.25186
199 3 11.2602 0.276399 5.28193
247 3 13.9773 1.90244 7.32911
251 3 15.3075 4.15225 7.28731
275 3 11.2419 1.85011 7.36479
279 3 12.5748 4.12766 7.388
299 3 12.6717 2.59066 9.49789
319 3 15.1975 2.6103 9.48655
315 3 14.0445 0.225226 9.50972
295 3 11.2589 0.271669 9.40768
12 1 11.629 3.9009 11.9526
45 1 13.23 2.64017 12.5141
41 1 12.2317 1.57228 11.7577
85 2 12.404 2.44281 11.9763
66 2 14.2851 2.73021 13.6808
2 1 14.8637 1.83158 13.2929
67 2 11.3889 0.0705155 11.7498
6 1 14.913 3.43314 13.598
32 1 15.4545 0.989645 11.5746
80 2 15.5115 0.771255 12.5333
29 1 15.4337 4.14488 11.9811
115 3 15.207 7.22966 0.964327
144 3 12.6079 7.23404 0.96827
168 3 12.678 8.86538 3.08582
187 3 13.9443 6.45166 3.00877
192 3 15.3788 8.83104 3.02743
148 3 11.2271 6.47732 3.03672
111 3 13.9237 4.87915 0.929944
139 3 11.1335 4.93706 1.01599
211 3 15.1876 7.28586 5.18265
240 3 12.5766 7.27437 5.1727
207 3 13.9098 4.88499 5.20261
235 3 11.2458 4.96982 5.26732
287 3 15.3333 8.89373 7.31741
283 3 13.9655 6.43422 7.32081
244 3 11.2435 6.51462 7.41094
264 3 12.6471 8.89787 7.36677
336 3 12.6234 7.23386 9.49985
307 3 15.2949 7.24323 9.41952
303 3 13.9021 4.84833 9.38288
331 3 11.1796 4.89835 9.4348
81 2 12.5742 7.09252 11.8039
37 1 12.297 6.15435 12.0775
33 1 13.57 7.03699 11.9275
18 1 15.5868 6.28019 12.25
7 1 11.7358 8.83547 12.0983
74 2 15.3518 7.2041 11.8578
72 2 11.4842 4.7593 11.724
69 2 15.8874 4.68042 12.6446
22 1 15.9662 7.77215 12.2963
108 3 12.5638 12.0337 0.923169
128 3 15.3545 12.0735 0.85543
152 3 13.9187 11.2439 2.93754
156 3 15.239 13.5043 3.07379
184 3 12.6327 13.5684 3.02836
180 3 11.2972 11.0924 3.03284
104 3 11.1695 9.48799 0.97051
124 3 13.8997 9.51617 0.942833
204 3 12.5856 11.9741 5.18333
224 3 15.2272 11.9273 5.0745
200 3 11.2116 9.57416 5.21935
220 3 13.982 9.69385 5.23959
276 3 11.2416 11.1326 7.35493
252 3 15.297 13.4544 7.27867
248 3 13.9436 11.1455 7.41083
280 3 12.5398 13.4726 7.37047
320 3 15.3684 11.9256 9.42939
300 3 12.5413 11.9512 9.48357
316 3 14.0149 9.53689 9.385
296 3 11.2181 9.68743 9.45546
82 2 15.4333 11.8851 12.4336
86 2 12.8219 11.8224 11.748
24 1 11.8639 13.0921 12.0925
46 1 12.1918 10.9508 12.0132
42 1 13.7967 11.7453 12.0425
84 2 11.2511 9.60362 11.8991
34 1 15.9218 11.1088 12.6665
5 1 16.1508 12.5662 12.3199
116 3 15.3075 16.7031 0.948375
143 3 12.7038 16.5508 0.909062
188 3 13.9041 15.8625 3.12319
167 3 12.5348 18.0952 3.02754
191 3 15.3053 18.2043 3.01106
147 3 11.3132 15.8396 2.97886
112 3 13.9482 14.3072 1.06187
140 3 11.2393 14.3165 0.987371
212 3 15.2602 16.6657 5.21723
239 3 12.5741 16.5915 5.28378
208 3 13.9167 14.299 5.26693
236 3 11.1636 14.3416 5.24824
284 3 13.9626 15.8029 7.32722
263 3 12.5395 18.1736 7.39433
243 3 11.2965 15.8066 7.40929
288 3 15.2155 18.2084 7.36761
335 3 12.7302 16.5309 9.44347
308 3 15.3364 16.5272 9.37571
304 3 14.0147 14.2743 9.43074
332 3 11.1893 14.3425 9.53693
88 2 12.7596 16.3626 11.9829
44 1 13.6598 16.2016 12.2426
48 1 12.5862 15.4055 12.376
56 1 15.8564 15.7313 11.552
3 1 11.6253 17.7587 11.8382
92 2 15.5997 16.0364 12.5652
40 1 15.8139 16.9988 12.7234
76 2 11.4706 14.0822 11.8052
