ITEM: TIMESTEP
120000000
ITEM: NUMBER OF ATOMS
336
ITEM: BOX BOUNDS pp pp pp
0.0000000000000000e+00 1.6167135238600000e+01
0.0000000000000000e+00 1.8668199539200000e+01
0.0000000000000000e+00 2.5747400283800001e+01
ITEM: ATOMS id type x y z
117 3 1.80757 2.66086 0.905423
141 3 4.51905 2.59339 0.972495
145 3 3.23566 1.81756 3.04131
173 3 1.78001 4.19012 2.99206
165 3 4.49456 4.12448 3.06841
169 3 0.458247 1.8103 3.04688
97 3 0.471225 0.407904 0.94356
138 3 3.2313 0.262756 1.00201
213 3 1.83661 2.68159 5.18106
237 3 4.48947 2.65081 5.21197
234 3 3.10977 0.261732 5.22309
193 3 0.428744 0.336224 5.15274
241 3 3.06464 1.90533 7.33763
269 3 1.80229 4.1317 7.30925
267 3 0.421204 1.88226 7.33008
261 3 4.53839 4.1154 7.35692
333 3 4.49811 2.62643 9.52912
309 3 1.77926 2.69728 9.46252
330 3 3.22404 0.216732 9.50363
290 3 0.489786 0.30149 9.29151
4 1 2.44044 0.781132 12.5618
38 1 5.3445 3.90572 11.8728
55 1 3.60962 3.20236 13.3889
91 2 2.86012 2.69775 12.7125
51 1 3.18708 2.57083 11.784
28 1 0.386491 0.67005 12.746
89 2 5.2431 4.28115 12.8359
105 3 4.47205 7.29778 0.996862
133 3 1.91783 7.25484 0.846251
177 3 3.21902 6.53862 3.0195
181 3 4.48314 8.8623 3.04716
161 3 1.83499 8.86858 3.01255
157 3 0.511103 6.48765 2.94742
129 3 0.41123 4.89262 0.918723
101 3 3.11341 4.90648 0.972772
201 3 4.48237 7.35061 5.17595
229 3 1.75953 7.32404 5.18546
197 3 3.09473 4.94606 5.13397
225 3 0.429286 5.00291 5.11113
257 3 1.8521 8.78602 7.34247
277 3 4.46706 8.8105 7.28101
273 3 3.19193 6.52604 7.27419
255 3 0.44232 6.52876 7.39568
325 3 1.84323 7.31402 9.40849
297 3 4.46729 7.38189 9.49363
293 3 3.14648 4.97727 9.35266
321 3 0.427578 4.96604 9.41384
65 2 5.33356 8.8566 12.7549
78 2 2.86956 5.83475 12.6069
1 1 5.25684 8.73539 11.7001
26 1 2.40308 6.5966 12.8748
30 1 2.58117 5.75524 11.6322
49 1 4.72076 5.09039 12.5727
73 2 0.968741 8.96951 12.7206
17 1 1.40064 9.10307 11.8017
13 1 0.615519 4.69698 12.5596
118 3 1.80537 12.0811 0.826103
142 3 4.58053 12.0411 0.943302
146 3 3.16009 11.1998 3.01686
174 3 1.80071 13.4907 3.02974
166 3 4.48801 13.5191 3.00932
170 3 0.540322 11.1181 2.87108
137 3 3.161 9.62479 0.943322
98 3 0.398541 9.58543 0.920774
214 3 1.80892 11.9291 5.10753
238 3 4.57584 11.8092 5.19415
233 3 3.10265 9.6668 5.19424
194 3 0.435338 9.59858 5.19983
270 3 1.71617 13.5196 7.33467
242 3 3.09983 11.1841 7.3232
262 3 4.54078 13.464 7.27976
268 3 0.503792 11.1757 7.24705
310 3 1.74435 11.9184 9.44349
334 3 4.46391 12.0413 9.39355
329 3 3.12567 9.53404 9.3315
289 3 0.494161 9.57098 9.31637
21 1 1.58508 9.48618 13.1735
53 1 4.84224 9.66857 12.8754
94 2 5.18863 13.1754 12.685
71 2 3.45982 10.9863 12.7531
11 1 3.20624 11.1864 11.6627
15 1 4.02275 11.8652 12.9427
62 1 5.3424 13.248 11.5596
95 2 1.0929 13.7866 12.7957
58 1 5.02228 13.9431 13.1748
106 3 4.41357 16.6736 0.957521
134 3 1.81382 16.734 0.932819
178 3 3.10838 15.9228 3.06763
162 3 1.82593 18.2028 3.03747
182 3 4.57123 18.1859 3.03038
158 3 0.547049 15.8491 3.02117
102 3 3.1256 14.2663 0.977327
130 3 0.525505 14.3421 0.93737
202 3 4.50039 16.5931 5.28225
230 3 1.8133 16.7335 5.16416
198 3 3.13729 14.2652 5.20523
226 3 0.384556 14.3071 5.19395
278 3 4.4864 18.1813 7.35539
256 3 0.461036 15.83 7.2893
274 3 3.18692 15.8141 7.32473
258 3 1.83733 18.1739 7.37666
326 3 1.79592 16.6406 9.35709
298 3 4.49419 16.5549 9.44924
294 3 3.09246 14.2075 9.38034
322 3 0.369245 14.2896 9.41362
63 1 0.736304 14.6868 13.2654
93 2 4.64811 16.1598 12.8002
61 1 4.25773 16.8713 13.4348
57 1 4.14453 16.4626 12.0356
9 1 1.50038 14.1024 11.9171
8 1 2.15339 17.9443 11.9947
68 2 2.05645 18.5142 12.7957
114 3 7.12582 2.66204 0.963631
135 3 9.76542 2.64444 1.02022
159 3 8.53425 1.84585 3.01922
189 3 7.11355 4.13227 3.13028
163 3 9.89543 4.17549 3.07249
186 3 5.88098 1.86225 3.10454
110 3 5.81621 0.251326 0.882975
131 3 8.61248 0.316057 0.879457
210 3 7.2508 2.62851 5.16718
231 3 9.89894 2.65702 5.23123
206 3 5.81392 0.300147 5.25076
227 3 8.53732 0.278515 5.25735
282 3 5.75402 1.90573 7.34531
286 3 7.2118 4.16649 7.35115
254 3 8.53873 1.89071 7.39372
259 3 9.83361 4.17626 7.40832
306 3 7.09741 2.5522 9.46034
327 3 9.73886 2.66264 9.49524
302 3 5.77315 0.361967 9.50724
323 3 8.61462 0.355184 9.42307
96 2 7.81502 2.71041 12.4541
64 1 7.34867 3.20742 11.6934
27 1 8.16676 1.31584 12.0244
60 1 6.90109 2.76218 13.0957
79 2 8.59989 0.351433 11.695
23 1 8.71359 4.44642 13.0153
59 1 10.4606 0.179149 12.2763
120 3 9.80742 7.21386 0.988554
125 3 7.2268 7.27813 1.02184
153 3 7.12579 8.86407 3.07334
172 3 8.50906 6.5812 3.1654
176 3 9.9051 8.76807 3.14245
149 3 5.81531 6.51596 3.1383
100 3 8.44861 4.90168 1.0788
121 3 5.75683 4.86325 1.05651
216 3 10.0069 7.22256 5.31004
221 3 7.19719 7.26337 5.25457
196 3 8.44687 4.97671 5.19139
217 3 5.81211 5.00774 5.26482
249 3 7.09128 8.80317 7.4062
272 3 9.96332 8.78647 7.41008
245 3 5.85926 6.47499 7.43708
265 3 8.49999 6.54685 7.37075
312 3 9.74751 7.12479 9.52423
317 3 7.22993 7.24536 9.55971
291 3 8.54435 4.90205 9.51516
313 3 5.82679 4.83038 9.54422
39 1 8.34686 7.94894 12.2388
83 2 7.58977 7.244 12.2887
35 1 6.83706 7.76249 13.0807
19 1 8.71334 6.01295 13.1615
75 2 9.17393 5.19563 13.4635
16 1 10.6545 4.7674 12.2849
113 3 7.30746 11.8912 0.994338
136 3 9.84086 11.976 1.00038
160 3 8.59902 11.1291 3.17869
190 3 7.20377 13.4837 3.0497
164 3 9.86767 13.4932 3.09426
185 3 5.89641 11.2003 2.95295
109 3 5.9575 9.51465 1.01624
132 3 8.60303 9.61738 1.05838
209 3 7.18179 11.8888 5.21381
232 3 9.93045 11.8935 5.29249
205 3 5.91287 9.61019 5.19132
228 3 8.53673 9.62643 5.23788
253 3 8.47754 11.1776 7.3289
285 3 7.19206 13.5601 7.33322
260 3 9.89991 13.5371 7.36656
281 3 5.87712 11.1547 7.40126
328 3 9.94583 11.9391 9.3966
305 3 7.29047 12.0203 9.42139
301 3 5.87559 9.58407 9.44992
324 3 8.50094 9.56147 9.38756
36 1 10.347 9.70494 11.8479
70 2 8.85807 10.0476 12.4413
10 1 8.57785 10.756 11.954
14 1 8.14835 10.3955 13.2634
25 1 7.91249 13.7007 13.4776
90 2 7.15799 11.191 14.2698
50 1 6.43216 11.8538 13.7659
52 1 8.32275 13.5231 11.9184
54 1 6.67458 10.4256 14.7448
119 3 9.96266 16.6504 1.04139
126 3 7.28813 16.6009 0.950626
171 3 8.52134 15.8629 3.00665
154 3 7.17601 18.2358 3.13509
175 3 9.88492 18.1853 3.05151
150 3 5.8517 15.9129 3.03457
99 3 8.55452 14.2291 0.991693
122 3 5.9465 14.4353 0.952631
215 3 9.96797 16.6246 5.17681
222 3 7.21206 16.7043 5.16356
218 3 5.86366 14.4125 5.14753
195 3 8.52317 14.3044 5.10401
271 3 9.84398 18.1855 7.30951
246 3 5.8538 15.9128 7.34445
266 3 8.62447 15.8641 7.37859
250 3 7.19092 18.1917 7.43096
318 3 7.21615 16.6238 9.4926
311 3 9.8215 16.6373 9.48152
314 3 5.85296 14.3297 9.42081
292 3 8.55413 14.2338 9.44611
43 1 6.19037 16.8629 12.3104
87 2 7.22591 16.8045 12.0874
47 1 7.81491 15.9082 12.426
31 1 7.96885 18.1805 12.0003
77 2 8.4897 14.2033 12.8185
20 1 10.5551 14.1966 12.2885
107 3 12.5705 2.75297 0.924383
127 3 15.2846 2.58979 0.972675
151 3 13.8608 1.85809 2.96621
155 3 15.2345 4.2368 3.0398
183 3 12.5221 4.19048 3.04417
179 3 11.1792 1.82088 3.06307
123 3 13.9094 0.343445 0.879057
103 3 11.3147 0.303109 0.956938
203 3 12.5868 2.5508 5.16715
223 3 15.3617 2.63668 5.14294
219 3 13.9434 0.340391 5.27015
199 3 11.2913 0.251668 5.28361
251 3 15.2972 4.1634 7.29817
247 3 13.99 1.89687 7.34948
279 3 12.5436 4.12387 7.38196
275 3 11.2486 1.86418 7.37143
319 3 15.1791 2.64087 9.43859
299 3 12.705 2.53193 9.45626
315 3 14.0986 0.240998 9.52512
295 3 11.2787 0.24404 9.43905
12 1 11.6502 3.64478 11.8133
85 2 12.4356 2.37725 11.9274
45 1 13.2237 2.61166 12.6377
41 1 12.2269 1.36128 11.7512
66 2 14.2886 2.64927 13.6622
2 1 14.8149 1.89196 13.2433
67 2 11.4537 0.0186324 11.7117
6 1 14.7062 3.53339 13.5829
32 1 15.6639 0.869646 11.4089
80 2 15.5896 0.777795 12.4891
29 1 15.4672 4.2337 11.8255
115 3 15.2101 7.23807 0.932334
144 3 12.6304 7.21582 0.9753
187 3 13.9295 6.44606 3.02439
192 3 15.3425 8.83417 3.02762
168 3 12.6678 8.89111 3.06931
148 3 11.2406 6.47312 3.04996
111 3 13.898 4.91154 0.915952
139 3 11.1563 4.94957 0.984602
211 3 15.1918 7.27411 5.18721
240 3 12.5778 7.28334 5.16483
235 3 11.2556 4.96574 5.2337
207 3 13.943 4.89741 5.19923
287 3 15.3296 8.85049 7.35273
283 3 13.9592 6.45792 7.3468
244 3 11.2512 6.50254 7.39725
264 3 12.6253 8.90417 7.38227
336 3 12.6357 7.21932 9.52628
307 3 15.2986 7.25457 9.38557
331 3 11.1449 4.94814 9.45625
303 3 13.9146 4.84756 9.36214
81 2 12.6417 7.10218 11.833
33 1 13.6805 7.00128 12.0464
7 1 11.8791 8.73607 12.0986
37 1 12.0755 6.16427 11.9283
18 1 15.6296 6.38222 12.1583
74 2 15.4018 7.28484 11.8387
72 2 11.485 4.74157 11.7
22 1 16.0276 8.01122 12.388
69 2 15.8165 4.6824 12.6484
108 3 12.5657 12.0424 0.914307
128 3 15.3688 12.0958 0.892674
152 3 13.9081 11.2332 2.90522
156 3 15.2212 13.5046 3.07761
184 3 12.6266 13.6039 3.04535
180 3 11.2737 11.0784 3.02188
104 3 11.1637 9.49525 0.965606
124 3 13.9068 9.52574 0.918461
204 3 12.5889 11.968 5.19398
224 3 15.2272 11.9241 5.09892
200 3 11.1959 9.57785 5.21126
220 3 13.9666 9.69408 5.21842
276 3 11.2417 11.1383 7.35624
252 3 15.2992 13.4691 7.28659
248 3 13.96 11.1365 7.42701
280 3 12.5206 13.4801 7.39832
320 3 15.3848 11.9031 9.41458
300 3 12.5402 11.9594 9.48033
296 3 11.2224 9.65878 9.44715
316 3 13.9955 9.57168 9.3836
24 1 11.8401 13.1923 11.9396
46 1 12.0825 10.9588 11.8621
86 2 12.7673 11.8232 11.6853
42 1 13.8227 11.8482 11.9292
84 2 11.3473 9.64609 11.8858
82 2 15.3472 11.8288 12.3984
34 1 15.897 11.0018 12.6949
5 1 15.9783 12.5638 12.3099
116 3 15.306 16.6979 0.917709
143 3 12.6991 16.5216 0.909139
167 3 12.5081 18.0815 3.02302
188 3 13.9258 15.8793 3.11861
191 3 15.3113 18.2263 3.01261
147 3 11.3112 15.8317 2.96827
140 3 11.2347 14.2872 1.01166
112 3 13.9289 14.3249 1.04261
212 3 15.2527 16.6346 5.24207
239 3 12.6024 16.5985 5.28616
208 3 13.8957 14.2936 5.26027
236 3 11.1562 14.3298 5.21244
284 3 13.951 15.8103 7.30778
263 3 12.5521 18.1302 7.39838
243 3 11.2789 15.8145 7.43748
288 3 15.2191 18.2359 7.35642
308 3 15.3074 16.5918 9.36666
335 3 12.7299 16.5261 9.4687
304 3 14.0128 14.2603 9.40958
332 3 11.1932 14.3537 9.52646
48 1 12.4797 15.3234 12.1272
56 1 16.0364 15.9048 11.6771
88 2 12.6822 16.3603 11.9068
44 1 13.6285 16.3152 12.1314
3 1 11.8483 17.7267 11.6763
92 2 15.6022 16.048 12.5921
40 1 15.8057 17.0771 12.6883
76 2 11.4703 14.0393 11.8275
