ITEM: TIMESTEP
120000000
ITEM: NUMBER OF ATOMS
336
ITEM: BOX BOUNDS pp pp pp
0.0000000000000000e+00 1.6167135238600000e+01
0.0000000000000000e+00 1.8668199539200000e+01
0.0000000000000000e+00 2.5747400283800001e+01
ITEM: ATOMS id type x y z
117 3 1.82094 2.66489 0.926149
141 3 4.54595 2.59115 0.978224
145 3 3.2052 1.82096 3.08004
173 3 1.78967 4.20154 2.97222
165 3 4.51301 4.14053 3.07176
169 3 0.466262 1.86169 3.03025
97 3 0.44687 0.405517 0.921859
138 3 3.20304 0.285261 0.974896
213 3 1.85169 2.65982 5.17126
237 3 4.50329 2.62612 5.22155
193 3 0.450391 0.320739 5.15251
234 3 3.12111 0.273951 5.25577
261 3 4.52839 4.12143 7.33949
269 3 1.75451 4.14643 7.29146
267 3 0.419347 1.86523 7.314
241 3 3.04523 1.95201 7.35878
309 3 1.8017 2.69625 9.46335
333 3 4.48067 2.60097 9.48559
290 3 0.506482 0.297708 9.27142
330 3 3.21709 0.210236 9.50591
55 1 3.51757 3.16931 13.1054
91 2 2.85905 2.73903 12.6541
4 1 2.3674 0.825711 12.5761
89 2 5.25666 4.27189 12.7816
51 1 3.27089 2.80575 11.6697
28 1 0.257196 0.487365 12.7873
38 1 5.26948 3.86915 11.7634
13 1 0.667245 4.59625 12.4831
105 3 4.48561 7.309 0.989672
133 3 1.93995 7.20647 0.887319
177 3 3.23721 6.54674 3.03365
181 3 4.50103 8.8345 3.03019
161 3 1.81072 8.85349 2.97042
157 3 0.49678 6.50888 2.93395
101 3 3.10469 4.87716 0.975578
129 3 0.406631 4.89698 0.890916
201 3 4.48477 7.34132 5.19777
229 3 1.76082 7.33258 5.17735
197 3 3.08527 4.96 5.1408
225 3 0.465699 4.9765 5.12526
257 3 1.84244 8.80523 7.3294
277 3 4.46143 8.83773 7.26257
273 3 3.14757 6.52695 7.29477
255 3 0.432201 6.50992 7.39665
297 3 4.43914 7.35743 9.48172
325 3 1.81617 7.32189 9.4121
293 3 3.13701 4.97976 9.35833
321 3 0.474473 4.98557 9.3785
30 1 2.65335 5.66748 11.6218
26 1 2.20012 6.49528 13.0123
65 2 5.2585 8.83639 12.762
1 1 5.36694 8.79864 11.7348
78 2 2.84904 5.80803 12.6309
73 2 0.979912 8.93908 12.7494
49 1 4.78429 5.03878 12.5586
17 1 1.3068 9.05225 11.6913
118 3 1.77441 12.0656 0.820592
142 3 4.58161 12.0468 0.957975
146 3 3.17434 11.1879 3.00442
174 3 1.81808 13.5029 3.03305
166 3 4.49292 13.5134 2.99004
170 3 0.520208 11.0971 2.8574
137 3 3.15398 9.61904 0.944156
98 3 0.403262 9.56656 0.89267
214 3 1.79704 11.9498 5.08807
238 3 4.578 11.8241 5.18402
194 3 0.442755 9.58269 5.21014
233 3 3.09896 9.69825 5.1873
270 3 1.72779 13.5266 7.30741
268 3 0.495972 11.1619 7.24501
242 3 3.11984 11.175 7.30787
262 3 4.53878 13.4633 7.27995
310 3 1.73807 11.9367 9.42356
334 3 4.47659 12.0415 9.4152
289 3 0.479723 9.54717 9.31561
329 3 3.12347 9.56206 9.3273
71 2 3.51102 11.0604 12.748
21 1 1.52519 9.46196 13.2352
94 2 5.17015 13.252 12.7134
62 1 5.38348 13.3914 11.5434
15 1 4.21837 11.7458 12.8857
11 1 3.10833 11.1864 11.8114
53 1 4.7681 9.63876 12.8581
95 2 1.10244 13.7576 12.7549
106 3 4.39528 16.6956 0.953411
134 3 1.83381 16.7038 0.961161
162 3 1.81542 18.199 3.05984
178 3 3.12295 15.9348 3.03897
182 3 4.56056 18.1863 3.02118
158 3 0.534615 15.8571 3.04995
102 3 3.14865 14.2839 0.944773
130 3 0.540535 14.3543 0.938067
202 3 4.51081 16.6097 5.28653
230 3 1.82211 16.6939 5.15682
226 3 0.401945 14.2997 5.18463
198 3 3.10632 14.2578 5.20741
256 3 0.489412 15.8304 7.24736
278 3 4.46377 18.207 7.34256
274 3 3.19864 15.8302 7.32106
258 3 1.82522 18.1649 7.38425
298 3 4.49812 16.5558 9.44123
326 3 1.7924 16.6582 9.34594
294 3 3.10642 14.2171 9.4042
322 3 0.386884 14.3111 9.42216
93 2 4.67743 16.2211 12.7782
63 1 0.825533 14.5506 13.2942
61 1 4.29313 16.8363 13.4151
57 1 3.97642 16.3575 12.0891
58 1 4.98655 14.0927 13.1069
8 1 2.12 17.9528 12.0577
68 2 2.09055 18.6038 12.8242
9 1 1.41619 14.0647 11.9629
114 3 7.11342 2.67487 0.948673
135 3 9.73335 2.6571 1.00655
159 3 8.53715 1.81486 3.00214
189 3 7.12063 4.13982 3.14361
163 3 9.90838 4.18066 3.07764
186 3 5.9075 1.86064 3.09395
110 3 5.85589 0.243822 0.907632
131 3 8.60963 0.311966 0.908733
210 3 7.2046 2.63931 5.16773
231 3 9.90089 2.62983 5.21969
227 3 8.51325 0.287381 5.22926
206 3 5.79586 0.28132 5.2349
282 3 5.7499 1.88273 7.36432
286 3 7.22549 4.17164 7.38244
259 3 9.85949 4.22588 7.42265
254 3 8.6019 1.90409 7.44064
306 3 7.08948 2.56498 9.46666
327 3 9.7845 2.68525 9.49312
323 3 8.58223 0.342431 9.41484
302 3 5.76947 0.371357 9.50455
27 1 8.29416 1.25119 11.9457
64 1 7.40516 3.148 11.6143
60 1 6.92089 2.94132 13.0671
96 2 7.81816 2.71351 12.4853
79 2 8.59995 0.362533 11.6477
23 1 8.6826 4.52947 13.0832
59 1 10.5978 0.316682 12.2664
120 3 9.83907 7.20636 1.00861
125 3 7.2247 7.26954 1.00289
172 3 8.52337 6.57608 3.1691
176 3 9.89557 8.77924 3.13889
153 3 7.15908 8.84816 3.07113
149 3 5.82443 6.54799 3.13706
100 3 8.45929 4.90649 1.08112
121 3 5.7676 4.85587 1.05022
216 3 10.0252 7.25315 5.30341
221 3 7.18538 7.24431 5.28539
196 3 8.4568 4.948 5.17736
217 3 5.81731 5.01243 5.2625
249 3 7.10034 8.80184 7.39788
272 3 9.94969 8.77992 7.40495
245 3 5.85777 6.49589 7.44543
265 3 8.48843 6.51881 7.35967
312 3 9.79224 7.14047 9.52096
317 3 7.23653 7.27094 9.55484
291 3 8.53936 4.87831 9.51334
313 3 5.85066 4.83788 9.54323
39 1 8.35098 7.82174 12.2336
83 2 7.57827 7.21106 12.2972
35 1 6.96945 7.76251 12.8752
19 1 8.53431 5.9604 13.3796
75 2 9.20743 5.25133 13.4931
16 1 10.6077 4.74232 12.1313
113 3 7.30269 11.9348 0.966839
136 3 9.84831 11.9525 1.01657
160 3 8.61378 11.1393 3.1639
190 3 7.18111 13.4926 3.05638
164 3 9.8561 13.4951 3.04929
185 3 5.88277 11.1885 2.95362
132 3 8.58921 9.60685 1.02823
109 3 5.93148 9.52741 1.02057
209 3 7.19043 11.9025 5.17593
232 3 9.91408 11.8665 5.30832
228 3 8.51148 9.6074 5.23367
205 3 5.92738 9.60882 5.19915
253 3 8.48371 11.1247 7.34896
260 3 9.89599 13.5401 7.36302
281 3 5.85531 11.1368 7.38764
285 3 7.1741 13.5468 7.36311
305 3 7.2995 12.0336 9.45488
328 3 9.93673 11.9585 9.39563
324 3 8.48182 9.5851 9.39758
301 3 5.84212 9.61371 9.44505
14 1 8.13284 10.2034 13.2203
70 2 8.85881 10.0517 12.4782
10 1 8.51921 10.634 11.7708
54 1 6.70339 10.5093 14.6862
25 1 8.22484 13.5988 13.5719
36 1 10.2495 9.58459 11.9297
90 2 7.18886 11.1647 14.2049
50 1 6.37095 11.6673 13.9092
52 1 8.27583 13.5638 12.0353
119 3 9.96456 16.6735 1.05451
126 3 7.27756 16.5953 0.96015
171 3 8.53685 15.8403 3.00139
154 3 7.18071 18.248 3.10955
175 3 9.88176 18.1909 3.07235
150 3 5.86355 15.9072 3.04481
122 3 5.93452 14.4404 0.938235
99 3 8.57502 14.2348 0.960535
218 3 5.87766 14.4136 5.16689
215 3 9.95852 16.6123 5.21599
222 3 7.22407 16.6965 5.17582
195 3 8.54657 14.3077 5.12345
271 3 9.84765 18.1889 7.30991
246 3 5.83146 15.9071 7.34797
266 3 8.61178 15.8663 7.40807
250 3 7.15668 18.1909 7.44112
318 3 7.22305 16.6358 9.48395
311 3 9.82019 16.6389 9.4417
314 3 5.83112 14.3434 9.39829
292 3 8.56262 14.2582 9.42651
87 2 7.17238 16.8364 12.0487
47 1 7.5659 16.0238 12.3763
43 1 6.24672 16.6552 12.2091
31 1 8.06775 18.1541 11.9337
77 2 8.5563 14.1348 12.8734
20 1 10.5795 14.0745 12.3211
107 3 12.5452 2.73861 0.942927
127 3 15.2581 2.60114 0.946663
151 3 13.8626 1.82659 2.94757
155 3 15.233 4.22636 3.03854
183 3 12.5323 4.20978 3.04408
179 3 11.1797 1.82588 3.08004
123 3 13.93 0.369748 0.875624
103 3 11.3153 0.28412 0.979275
203 3 12.5806 2.57059 5.1424
223 3 15.3802 2.63226 5.1456
219 3 13.9359 0.341619 5.24884
199 3 11.2566 0.263809 5.27338
247 3 13.9615 1.90982 7.31698
251 3 15.3307 4.14917 7.30227
275 3 11.255 1.87171 7.35704
279 3 12.5413 4.12938 7.4084
319 3 15.2145 2.6153 9.47955
299 3 12.6871 2.59438 9.48896
315 3 14.0603 0.204618 9.50063
295 3 11.2609 0.237705 9.4388
41 1 12.3276 1.47214 11.894
45 1 13.2351 2.54471 12.5793
85 2 12.4081 2.46928 11.9853
12 1 11.6677 3.7351 11.9451
66 2 14.307 2.67236 13.6615
2 1 14.898 2.08832 13.205
29 1 15.3579 4.22667 12.033
6 1 14.7707 3.4376 13.5884
32 1 15.5132 1.02394 11.6741
80 2 15.5057 0.728561 12.5289
67 2 11.4143 0.0846498 11.7069
69 2 15.8383 4.63492 12.6568
115 3 15.203 7.21181 0.946815
144 3 12.6218 7.21813 0.976642
187 3 13.9391 6.43493 3.01856
168 3 12.6686 8.87521 3.07183
192 3 15.3597 8.83448 3.02162
148 3 11.2178 6.48319 3.05535
139 3 11.1456 4.91531 1.01189
111 3 13.9048 4.87835 0.919411
211 3 15.1867 7.29262 5.19726
240 3 12.57 7.2737 5.1868
235 3 11.2577 4.9775 5.2797
207 3 13.9107 4.87728 5.2056
287 3 15.3482 8.8864 7.28893
283 3 13.9554 6.41589 7.34339
244 3 11.2414 6.52632 7.40018
264 3 12.608 8.90652 7.37584
336 3 12.6304 7.22872 9.50008
307 3 15.3071 7.23383 9.4036
331 3 11.1635 4.91051 9.41378
303 3 13.9062 4.85194 9.36145
33 1 13.5047 7.1004 12.0458
37 1 12.4036 6.13352 12.1239
81 2 12.6359 7.10699 11.7515
7 1 11.7248 8.74576 12.1552
18 1 15.6017 6.3765 12.2309
74 2 15.3672 7.22578 11.836
72 2 11.5117 4.70389 11.7339
22 1 16.0123 7.82591 12.2079
108 3 12.5446 12.0355 0.904063
128 3 15.352 12.0844 0.864217
152 3 13.9292 11.2275 2.92835
156 3 15.2182 13.5098 3.07923
184 3 12.6177 13.5752 3.03156
180 3 11.2905 11.0964 2.99639
124 3 13.8896 9.51071 0.963606
104 3 11.1728 9.49927 1.00547
204 3 12.627 11.9808 5.18709
224 3 15.2173 11.9443 5.08504
200 3 11.2116 9.58469 5.203
220 3 13.9907 9.69854 5.19863
276 3 11.2442 11.1338 7.35499
252 3 15.2829 13.4634 7.27616
248 3 13.9451 11.1362 7.4233
280 3 12.5255 13.4813 7.38387
320 3 15.3893 11.926 9.42014
300 3 12.55 11.9429 9.4563
316 3 14.0213 9.55387 9.38897
296 3 11.2251 9.64693 9.44853
24 1 11.7735 13.198 12.1384
86 2 12.7967 11.8376 11.7537
84 2 11.3089 9.67713 11.873
42 1 13.8068 11.6578 11.9652
46 1 12.2112 10.9757 11.8449
82 2 15.3768 11.8325 12.4264
34 1 15.9137 11.0566 12.7283
5 1 16.0018 12.5051 12.5452
116 3 15.3249 16.6989 0.949035
143 3 12.6873 16.54 0.924431
167 3 12.5323 18.0849 3.02386
188 3 13.8993 15.8837 3.1307
191 3 15.2909 18.2092 3.02262
147 3 11.3253 15.8404 2.98059
140 3 11.2378 14.2995 1.01261
112 3 13.9671 14.3229 1.03622
212 3 15.2191 16.6589 5.25314
239 3 12.5878 16.5823 5.2962
208 3 13.9077 14.2708 5.24718
236 3 11.1687 14.3497 5.23778
284 3 13.965 15.8024 7.31315
243 3 11.2959 15.7949 7.41888
263 3 12.5397 18.1819 7.4005
288 3 15.205 18.1942 7.36533
335 3 12.7162 16.5315 9.44628
308 3 15.3269 16.555 9.39113
304 3 14.0379 14.2612 9.44486
332 3 11.201 14.3584 9.5435
56 1 15.9098 15.589 11.6334
48 1 12.5946 15.418 12.2333
88 2 12.744 16.3535 11.9161
44 1 13.713 16.2296 12.2526
3 1 11.7098 17.8083 11.9038
92 2 15.5818 16.0385 12.5495
40 1 15.7532 16.9383 12.5796
76 2 11.4503 14.0503 11.8142
