ITEM: TIMESTEP
120000000
ITEM: NUMBER OF ATOMS
336
ITEM: BOX BOUNDS pp pp pp
0.0000000000000000e+00 1.6167135238600000e+01
0.0000000000000000e+00 1.8668199539200000e+01
0.0000000000000000e+00 2.5747400283800001e+01
ITEM: ATOMS id type x y z
117 3 1.79331 2.67397 0.913201
141 3 4.5224 2.58461 0.969163
145 3 3.21795 1.84193 3.0559
165 3 4.47896 4.12408 3.06149
173 3 1.78736 4.19894 2.97395
169 3 0.465774 1.86087 3.03967
97 3 0.466636 0.400184 0.916252
138 3 3.25829 0.288616 0.988235
213 3 1.84039 2.66275 5.14917
237 3 4.4783 2.64268 5.23282
193 3 0.41493 0.310539 5.17153
234 3 3.07997 0.239382 5.24447
261 3 4.50751 4.15156 7.35433
269 3 1.77475 4.15373 7.29711
267 3 0.435905 1.87018 7.3427
241 3 3.06237 1.90566 7.36903
309 3 1.78417 2.69837 9.47503
333 3 4.48558 2.62693 9.53828
290 3 0.485701 0.3118 9.30899
330 3 3.22791 0.204205 9.50577
55 1 3.7445 3.2897 13.1288
89 2 5.27869 4.29059 12.8814
91 2 2.86122 2.74376 12.6858
4 1 2.31851 0.826079 12.6997
51 1 3.0924 2.6841 11.8227
38 1 5.17882 3.8442 11.918
28 1 0.245732 0.650826 12.847
13 1 0.572514 4.54702 12.5554
105 3 4.45804 7.3009 1.00279
133 3 1.93183 7.22599 0.863232
177 3 3.21485 6.53204 3.02563
181 3 4.47839 8.83222 3.04394
161 3 1.83606 8.87788 3.00092
157 3 0.504975 6.51145 2.94676
129 3 0.390614 4.86314 0.876716
101 3 3.12885 4.88693 0.96807
201 3 4.49103 7.37284 5.16806
229 3 1.75924 7.31969 5.18027
197 3 3.107 4.93635 5.15826
225 3 0.455334 4.97518 5.15089
257 3 1.85105 8.81229 7.33982
277 3 4.47502 8.80265 7.26512
273 3 3.15992 6.5578 7.29717
255 3 0.43856 6.51392 7.37943
325 3 1.84565 7.32545 9.40761
297 3 4.49058 7.36068 9.46144
293 3 3.14953 4.99057 9.33047
321 3 0.415204 4.94004 9.42285
1 1 5.24496 8.75858 11.7356
73 2 1.04747 9.00996 12.7212
65 2 5.28128 8.86185 12.7541
26 1 2.30606 6.49393 13.1203
30 1 2.53829 5.7636 11.6324
78 2 2.87793 5.81484 12.6652
49 1 4.67199 5.02705 12.8057
17 1 1.37627 8.97839 11.7653
118 3 1.81759 12.0862 0.80631
142 3 4.58762 12.0535 0.956665
146 3 3.17485 11.1765 2.99159
174 3 1.80678 13.4721 3.0505
166 3 4.51011 13.5288 3.0344
170 3 0.537889 11.1225 2.88422
137 3 3.13626 9.61938 0.941067
98 3 0.396708 9.56868 0.893094
214 3 1.80765 11.9659 5.09966
238 3 4.58083 11.8242 5.204
233 3 3.12334 9.68741 5.17257
194 3 0.450203 9.58274 5.20609
270 3 1.74107 13.5251 7.32587
262 3 4.505 13.5018 7.26702
268 3 0.50797 11.1673 7.24744
242 3 3.09492 11.17 7.31367
334 3 4.46753 12.0294 9.42218
310 3 1.73813 11.9176 9.43771
329 3 3.12896 9.57317 9.33897
289 3 0.5041 9.56934 9.2929
21 1 1.62196 9.55976 13.3076
5 1 0.0264935 12.503 12.368
15 1 4.04435 11.8726 12.7975
94 2 5.13937 13.1922 12.6818
11 1 3.29526 11.2637 11.8168
71 2 3.45019 11.0329 12.7508
53 1 4.81799 9.7102 12.675
95 2 1.13102 13.7943 12.7923
62 1 5.26961 13.131 11.6667
106 3 4.41305 16.6917 0.969826
134 3 1.82068 16.7353 0.935949
162 3 1.79614 18.1868 3.04256
178 3 3.13476 15.921 3.06857
182 3 4.57267 18.217 3.02962
158 3 0.547206 15.8595 3.03869
102 3 3.11558 14.2712 0.950829
130 3 0.532902 14.3376 0.911167
202 3 4.48845 16.6215 5.26931
230 3 1.84369 16.7448 5.15157
198 3 3.1112 14.2757 5.2127
226 3 0.413784 14.304 5.18628
278 3 4.45707 18.1954 7.33769
256 3 0.454409 15.8103 7.26107
274 3 3.18269 15.8301 7.32255
258 3 1.82847 18.1619 7.40033
298 3 4.48316 16.5471 9.44521
326 3 1.81027 16.6351 9.36306
322 3 0.389424 14.2853 9.40413
294 3 3.08227 14.2323 9.39755
63 1 0.876775 14.5555 13.2285
57 1 4.09058 16.4213 12.0125
61 1 4.06783 16.6274 13.4333
93 2 4.66828 16.1651 12.7943
8 1 2.07299 17.8392 12.0886
68 2 2.05898 18.515 12.8845
9 1 1.34058 14.2026 11.8548
58 1 4.97568 14.0705 13.194
114 3 7.12296 2.63467 0.963948
135 3 9.74987 2.64924 0.995962
159 3 8.54377 1.85312 3.03787
189 3 7.12949 4.14941 3.15883
163 3 9.91989 4.17397 3.07919
186 3 5.88138 1.85906 3.10761
110 3 5.83433 0.272281 0.903825
131 3 8.61647 0.32889 0.904522
210 3 7.21835 2.63749 5.18845
231 3 9.90108 2.62531 5.21092
206 3 5.8238 0.311941 5.25275
227 3 8.5088 0.264075 5.23904
282 3 5.73323 1.89045 7.3355
286 3 7.21041 4.15055 7.36766
259 3 9.8417 4.18536 7.43003
254 3 8.55405 1.87691 7.42859
327 3 9.75301 2.70808 9.48294
306 3 7.07108 2.56335 9.47429
323 3 8.60343 0.341216 9.41742
302 3 5.79356 0.368247 9.50211
27 1 8.30555 1.26443 11.927
64 1 7.28627 3.07622 11.6976
96 2 7.79338 2.7213 12.5277
60 1 7.01329 2.81748 13.1098
79 2 8.61587 0.333215 11.601
23 1 8.67027 4.40076 13.1301
59 1 10.485 0.208352 12.1652
120 3 9.804 7.1947 1.00118
125 3 7.23773 7.24455 0.980919
172 3 8.51142 6.57744 3.15663
153 3 7.15405 8.90339 3.09291
176 3 9.91264 8.76341 3.14505
149 3 5.82029 6.51829 3.11051
100 3 8.46659 4.92431 1.10504
121 3 5.75359 4.84967 1.03331
216 3 10.0097 7.23735 5.29741
221 3 7.18852 7.27309 5.25467
196 3 8.45297 4.98295 5.18582
217 3 5.78958 5.02683 5.26856
249 3 7.12587 8.83216 7.39248
272 3 9.95946 8.76434 7.42366
245 3 5.84745 6.4793 7.41863
265 3 8.46676 6.52003 7.36091
317 3 7.22146 7.25891 9.54428
312 3 9.75123 7.12581 9.5127
291 3 8.54443 4.89652 9.49047
313 3 5.84437 4.82743 9.56374
83 2 7.57617 7.24123 12.3251
19 1 8.62435 6.06978 13.2477
35 1 6.86229 7.74741 12.9292
39 1 8.38393 7.80304 12.0876
75 2 9.19475 5.17825 13.4499
16 1 10.5668 4.93309 12.2678
113 3 7.31633 11.9178 1.03019
136 3 9.83875 11.9685 0.98939
160 3 8.62314 11.1467 3.17143
190 3 7.17647 13.4984 3.0263
164 3 9.86208 13.4853 3.08657
185 3 5.89043 11.1721 2.93704
109 3 5.95289 9.52751 1.00452
132 3 8.61162 9.57688 1.03777
209 3 7.20255 11.9118 5.19848
232 3 9.93095 11.9012 5.28557
205 3 5.95212 9.62145 5.20242
228 3 8.53157 9.63096 5.23641
253 3 8.45839 11.1723 7.35572
260 3 9.89077 13.5214 7.36111
281 3 5.85746 11.1281 7.38398
285 3 7.16257 13.5485 7.357
305 3 7.28232 12.0107 9.42809
328 3 9.94702 11.942 9.39696
301 3 5.84212 9.57544 9.44118
324 3 8.50776 9.55238 9.38741
10 1 8.40947 10.6729 11.7699
70 2 8.85985 10.0036 12.4107
14 1 8.2883 10.3328 13.0328
50 1 6.46689 11.5865 13.8944
90 2 7.07084 11.1779 14.3227
36 1 10.139 9.56614 11.9488
25 1 7.9996 13.6689 13.5788
52 1 8.42266 13.5821 12.0084
54 1 6.76898 10.4282 14.7319
119 3 9.93145 16.6679 1.01754
126 3 7.25981 16.609 0.98506
171 3 8.52234 15.8568 3.02045
154 3 7.20634 18.2294 3.15552
175 3 9.87035 18.1975 3.06552
150 3 5.84917 15.9289 3.04377
122 3 5.96317 14.4699 0.968919
99 3 8.54776 14.2198 0.98013
195 3 8.55166 14.3018 5.10303
215 3 9.97098 16.5999 5.17181
222 3 7.2378 16.7107 5.14419
218 3 5.86507 14.3767 5.15936
271 3 9.82478 18.1884 7.33283
246 3 5.85547 15.8956 7.31789
266 3 8.62908 15.8749 7.42152
250 3 7.1488 18.1735 7.40824
311 3 9.82062 16.6407 9.4826
318 3 7.2468 16.6208 9.4783
314 3 5.82604 14.335 9.41821
292 3 8.55526 14.2524 9.45851
87 2 7.214 16.8399 12.0993
47 1 7.7857 16.1298 12.3243
43 1 6.24002 17.0011 12.398
31 1 7.92984 18.2399 12.0601
77 2 8.5263 14.181 12.8496
20 1 10.5278 14.2386 12.2749
107 3 12.5569 2.7726 0.899448
127 3 15.265 2.60195 0.980944
151 3 13.8659 1.84985 2.95682
155 3 15.2171 4.22466 3.04306
183 3 12.5322 4.20102 3.06594
179 3 11.1949 1.81706 3.05543
123 3 13.9227 0.347309 0.901471
103 3 11.3259 0.331899 0.963105
203 3 12.5686 2.58615 5.16784
223 3 15.3524 2.62279 5.15355
219 3 13.9399 0.371404 5.25358
199 3 11.2574 0.270407 5.27854
247 3 14.002 1.93394 7.33272
251 3 15.3123 4.15284 7.28629
275 3 11.2426 1.85038 7.36294
279 3 12.5405 4.12627 7.38179
299 3 12.6702 2.5628 9.4832
319 3 15.1798 2.62662 9.46825
315 3 14.0475 0.219547 9.49851
295 3 11.2771 0.269312 9.41804
41 1 12.1895 1.4349 12.0396
12 1 11.6562 3.6921 11.7813
45 1 13.1265 2.62852 12.7381
85 2 12.4256 2.36528 11.9401
29 1 15.4753 4.18525 11.8687
66 2 14.2688 2.71323 13.6517
2 1 14.8867 1.90749 13.312
6 1 14.8451 3.44885 13.4796
32 1 15.5714 0.914706 11.5705
80 2 15.4842 0.774102 12.4948
67 2 11.4515 0.00551758 11.756
115 3 15.1975 7.24974 0.951912
144 3 12.6066 7.2233 0.943217
187 3 13.9454 6.47296 3.02229
192 3 15.3406 8.84202 3.03578
168 3 12.7032 8.88184 3.08397
148 3 11.223 6.46338 3.04107
111 3 13.9322 4.89776 0.926304
139 3 11.1352 4.92474 1.00273
211 3 15.1972 7.26092 5.18418
240 3 12.5892 7.29344 5.16607
207 3 13.9033 4.87159 5.22118
235 3 11.2423 4.96287 5.24496
287 3 15.3406 8.89164 7.32825
283 3 13.9647 6.43099 7.32582
244 3 11.2496 6.47933 7.39552
264 3 12.6372 8.91962 7.37354
336 3 12.6419 7.21538 9.5072
307 3 15.3037 7.2479 9.42356
303 3 13.9152 4.83852 9.36809
331 3 11.154 4.93719 9.47023
37 1 12.0444 6.30144 11.9554
81 2 12.6577 7.15717 11.8251
33 1 13.527 7.1484 11.9249
7 1 11.9302 8.8954 12.1519
72 2 11.4118 4.72574 11.6744
74 2 15.3736 7.27816 11.8565
18 1 15.4982 6.3517 12.3711
69 2 15.8133 4.67227 12.713
22 1 16.0904 7.79725 12.3076
108 3 12.5878 12.0231 0.908096
128 3 15.3448 12.08 0.873386
152 3 13.9534 11.2496 2.88593
156 3 15.2286 13.5067 3.08402
184 3 12.6366 13.5696 3.03113
180 3 11.3068 11.1074 3.03691
104 3 11.1502 9.49538 0.971654
124 3 13.8779 9.53959 0.93962
204 3 12.6043 11.9821 5.2016
224 3 15.2562 11.9134 5.12237
200 3 11.2107 9.56762 5.19263
220 3 13.9661 9.67978 5.24339
276 3 11.2379 11.1453 7.35034
252 3 15.2664 13.457 7.28704
248 3 13.964 11.1582 7.41274
280 3 12.5555 13.4605 7.39204
320 3 15.3611 11.934 9.42166
300 3 12.5437 11.9609 9.46763
316 3 13.9984 9.5544 9.36878
296 3 11.2012 9.64379 9.44432
46 1 12.1209 11.0409 11.9264
42 1 13.7137 11.8666 11.8876
84 2 11.2769 9.59866 11.8596
86 2 12.7417 11.7786 11.7478
82 2 15.3794 11.8734 12.421
24 1 11.7999 13.1394 12.0093
34 1 15.921 11.1147 12.6113
116 3 15.2906 16.6843 0.935988
143 3 12.7296 16.5127 0.91445
167 3 12.5182 18.1067 3.02565
188 3 13.9131 15.8669 3.12796
191 3 15.3005 18.2097 3.00766
147 3 11.331 15.8322 2.98604
112 3 13.9541 14.3144 1.06102
140 3 11.2531 14.2959 1.00625
212 3 15.269 16.6119 5.24727
239 3 12.5946 16.5857 5.26451
208 3 13.9106 14.3037 5.24577
236 3 11.1858 14.3486 5.23144
284 3 13.9526 15.7875 7.32971
243 3 11.3065 15.7897 7.42545
263 3 12.5573 18.1445 7.41887
288 3 15.2151 18.261 7.37503
308 3 15.3291 16.5575 9.35358
335 3 12.6849 16.5268 9.44114
304 3 13.9991 14.2468 9.42002
332 3 11.2228 14.3241 9.53044
88 2 12.7534 16.3248 11.9634
44 1 13.6837 16.2966 12.2898
48 1 12.4779 15.4084 12.1578
92 2 15.5754 16.0437 12.5636
56 1 15.8524 15.9507 11.6652
3 1 11.7596 17.7345 11.8877
40 1 15.733 17.1096 12.7805
76 2 11.4319 14.0534 11.8077
