ITEM: TIMESTEP
120000000
ITEM: NUMBER OF ATOMS
336
ITEM: BOX BOUNDS pp pp pp
0.0000000000000000e+00 1.6167135238600000e+01
0.0000000000000000e+00 1.8668199539200000e+01
0.0000000000000000e+00 2.5747400283800001e+01
ITEM: ATOMS id type x y z
117 3 1.80625 2.66839 0.892284
141 3 4.52877 2.58219 0.935549
145 3 3.22265 1.83543 3.06403
165 3 4.49909 4.13074 3.06909
173 3 1.801 4.21083 2.98767
169 3 0.465858 1.88064 3.04117
97 3 0.473179 0.382054 0.89267
138 3 3.24607 0.298176 0.982214
213 3 1.87202 2.65045 5.14197
237 3 4.48318 2.6316 5.21306
193 3 0.425507 0.307718 5.15105
234 3 3.08838 0.251563 5.24323
261 3 4.52709 4.15387 7.35295
269 3 1.77335 4.16694 7.30117
267 3 0.445251 1.86158 7.35333
241 3 3.04931 1.9083 7.35224
309 3 1.78104 2.68817 9.45867
333 3 4.47628 2.59825 9.53371
330 3 3.21034 0.188583 9.48475
290 3 0.494707 0.322296 9.29096
51 1 3.12258 2.64289 11.8213
4 1 2.40924 0.74979 12.829
55 1 3.59942 3.3005 13.2068
91 2 2.86904 2.7328 12.6864
28 1 0.26469 0.640165 12.783
89 2 5.26399 4.26608 12.8779
38 1 5.32665 3.85448 11.785
13 1 0.597541 4.43322 12.4129
105 3 4.464 7.31793 0.985514
133 3 1.94032 7.22066 0.864893
177 3 3.19339 6.55701 3.02342
181 3 4.49004 8.8132 3.0288
161 3 1.83295 8.84888 2.98277
157 3 0.517728 6.52866 2.94412
129 3 0.374034 4.88149 0.878601
101 3 3.12058 4.88297 0.990007
201 3 4.5006 7.3505 5.18087
229 3 1.76042 7.33864 5.18952
197 3 3.09895 4.9338 5.15803
225 3 0.459167 4.9868 5.14381
257 3 1.8515 8.80856 7.32593
277 3 4.47258 8.81103 7.26171
273 3 3.14962 6.52764 7.28975
255 3 0.447096 6.52872 7.37498
297 3 4.49331 7.37066 9.47558
325 3 1.83909 7.33786 9.39826
321 3 0.414479 4.95813 9.41332
293 3 3.14332 4.98419 9.36256
65 2 5.32381 8.88131 12.7576
26 1 2.16573 6.4179 13.0241
1 1 5.16719 8.81428 11.7335
30 1 2.60113 5.65404 11.8388
78 2 2.85467 5.77902 12.6723
49 1 4.76647 5.11212 12.86
73 2 0.999241 9.06639 12.7046
17 1 1.45004 8.87728 11.7087
118 3 1.8001 12.0873 0.817955
142 3 4.58859 12.074 0.957073
146 3 3.19346 11.1922 2.98397
174 3 1.81433 13.4818 3.0584
166 3 4.51371 13.5168 3.02042
170 3 0.549204 11.127 2.87935
137 3 3.14003 9.62563 0.914009
98 3 0.403335 9.57031 0.882337
214 3 1.81703 11.9351 5.10744
238 3 4.5621 11.8302 5.19069
233 3 3.1135 9.6684 5.17374
194 3 0.457688 9.58197 5.20794
270 3 1.7359 13.5238 7.31641
262 3 4.51632 13.4789 7.28017
268 3 0.504359 11.1725 7.25714
242 3 3.09757 11.1754 7.31039
310 3 1.75379 11.926 9.40409
334 3 4.47163 12.0415 9.43288
329 3 3.11304 9.59381 9.34193
289 3 0.482271 9.5626 9.29978
53 1 4.73668 9.69842 12.7875
21 1 1.63092 9.59241 13.3042
95 2 1.12213 13.7504 12.7995
71 2 3.44996 10.9991 12.7298
15 1 4.0429 11.7653 12.8069
11 1 3.35286 11.4019 11.7726
5 1 0.0425508 12.5402 12.3706
94 2 5.18169 13.2329 12.6657
106 3 4.41206 16.6957 0.962463
134 3 1.82616 16.7223 0.934166
162 3 1.8108 18.1774 3.05098
178 3 3.11638 15.911 3.05008
182 3 4.58224 18.2134 3.05395
158 3 0.552437 15.8403 3.04148
102 3 3.13483 14.259 0.958506
130 3 0.53779 14.3523 0.930775
202 3 4.50679 16.6091 5.26428
230 3 1.83313 16.7212 5.15468
226 3 0.416711 14.281 5.19698
198 3 3.1219 14.2721 5.21541
256 3 0.473419 15.808 7.25601
278 3 4.45359 18.1759 7.32047
274 3 3.18524 15.8103 7.31243
258 3 1.83425 18.1843 7.40594
326 3 1.78542 16.6462 9.37878
298 3 4.48326 16.5297 9.45416
294 3 3.07537 14.2336 9.39508
322 3 0.3804 14.3004 9.41012
61 1 4.08146 16.6123 13.4535
63 1 0.771508 14.5486 13.3143
93 2 4.69185 16.1961 12.832
57 1 4.03212 16.4173 12.09
8 1 1.84067 17.943 12.0917
58 1 4.92126 14.161 13.2114
68 2 2.02367 18.5514 12.8706
9 1 1.48879 14.0546 11.9164
114 3 7.1087 2.65455 0.947685
135 3 9.74932 2.67277 0.997703
159 3 8.51216 1.8137 3.0409
189 3 7.12532 4.13663 3.16416
163 3 9.89772 4.17 3.07048
186 3 5.89812 1.87762 3.10039
110 3 5.83697 0.258315 0.917223
131 3 8.60094 0.337661 0.928552
210 3 7.22276 2.63259 5.17843
231 3 9.91005 2.63505 5.23595
227 3 8.51286 0.268868 5.23312
206 3 5.82069 0.316736 5.24639
282 3 5.75397 1.91609 7.32812
286 3 7.20529 4.13109 7.35631
259 3 9.85068 4.22881 7.41813
254 3 8.57671 1.88294 7.4292
306 3 7.09143 2.56339 9.46086
327 3 9.77202 2.69495 9.47415
323 3 8.60703 0.335954 9.43002
302 3 5.79468 0.380733 9.49016
27 1 8.22581 1.20382 11.9706
96 2 7.8518 2.68413 12.4928
64 1 7.26111 3.0815 11.6197
60 1 7.02641 2.90138 13.109
79 2 8.58613 0.304252 11.5872
23 1 8.76345 4.41787 13.238
59 1 10.5758 0.306321 12.2129
120 3 9.83465 7.21484 1.00968
125 3 7.23403 7.25998 0.999265
172 3 8.51494 6.58314 3.15167
153 3 7.15652 8.88308 3.07582
176 3 9.89846 8.75779 3.13542
149 3 5.83762 6.52993 3.1053
100 3 8.48496 4.91986 1.08813
121 3 5.75469 4.84113 1.02637
216 3 9.99362 7.23941 5.32993
221 3 7.18269 7.27239 5.26276
196 3 8.45323 4.96769 5.19179
217 3 5.79506 5.03103 5.28232
265 3 8.46414 6.52945 7.35431
249 3 7.11686 8.84465 7.3972
272 3 9.9478 8.75282 7.41427
245 3 5.84286 6.48611 7.42625
317 3 7.2229 7.2663 9.54001
312 3 9.77086 7.1363 9.53725
291 3 8.53294 4.89083 9.50282
313 3 5.8416 4.82542 9.57166
19 1 8.62399 5.98454 13.3901
35 1 6.94495 7.69241 12.8615
83 2 7.57535 7.19392 12.3407
39 1 8.3776 7.79643 12.1569
75 2 9.20891 5.17447 13.4666
16 1 10.5963 4.90589 12.203
113 3 7.30793 11.913 1.02287
136 3 9.84148 11.9589 0.974925
160 3 8.60826 11.1287 3.17955
190 3 7.16919 13.5132 3.02164
164 3 9.87322 13.483 3.06792
185 3 5.87484 11.1687 2.93578
132 3 8.59077 9.57879 1.0164
109 3 5.95958 9.52868 1.01773
209 3 7.20919 11.8925 5.19918
232 3 9.94613 11.8853 5.27383
205 3 5.95331 9.60205 5.18463
228 3 8.54081 9.62336 5.21925
260 3 9.87961 13.5267 7.35584
253 3 8.46884 11.1499 7.35482
281 3 5.84982 11.1321 7.36054
285 3 7.1676 13.5375 7.3663
305 3 7.29437 12.0341 9.44662
328 3 9.94779 11.9364 9.38508
301 3 5.86072 9.60213 9.42296
324 3 8.47456 9.53469 9.38318
70 2 8.79417 10.0068 12.4396
10 1 8.47813 10.6665 11.7083
14 1 8.28543 10.4424 13.1478
50 1 6.39647 11.5432 13.835
54 1 6.68189 10.3597 14.7113
36 1 10.3079 9.50231 11.9632
90 2 7.13181 11.2015 14.2798
52 1 8.42577 13.5348 11.9861
25 1 8.0514 13.657 13.5775
62 1 5.40307 13.3154 11.7253
119 3 9.92865 16.6516 1.02001
126 3 7.26621 16.6139 0.96068
171 3 8.54327 15.8429 3.01704
175 3 9.86436 18.2092 3.06371
154 3 7.2013 18.2336 3.14329
150 3 5.84746 15.9137 3.05184
122 3 5.96681 14.4543 0.951715
99 3 8.53448 14.2177 0.971196
215 3 9.97107 16.5913 5.18674
222 3 7.2327 16.7069 5.16744
218 3 5.8732 14.3955 5.15827
195 3 8.55667 14.2848 5.11477
271 3 9.85829 18.1874 7.32225
246 3 5.85161 15.9002 7.32031
266 3 8.6212 15.8718 7.43295
250 3 7.15064 18.1968 7.41723
311 3 9.83782 16.6401 9.47836
318 3 7.22928 16.6216 9.47765
314 3 5.83517 14.3131 9.39802
292 3 8.5679 14.2434 9.45824
47 1 7.67307 16.1518 12.3634
31 1 7.97564 18.2611 12.0001
87 2 7.16406 16.8835 12.0919
43 1 6.09744 16.7731 12.3537
77 2 8.55813 14.1367 12.841
20 1 10.4816 14.2979 12.2508
107 3 12.5521 2.76848 0.912685
127 3 15.2842 2.61544 0.967492
151 3 13.859 1.8491 2.9618
155 3 15.2251 4.21781 3.04803
183 3 12.531 4.21883 3.056
179 3 11.208 1.79978 3.06056
123 3 13.9098 0.369291 0.883709
103 3 11.3106 0.330164 0.973248
203 3 12.5649 2.6063 5.18612
223 3 15.3439 2.63434 5.14854
199 3 11.256 0.267024 5.28011
219 3 13.9404 0.358392 5.26307
247 3 13.9863 1.91436 7.31261
251 3 15.3322 4.16305 7.27841
275 3 11.2326 1.85265 7.35848
279 3 12.5661 4.12688 7.38229
319 3 15.2082 2.62311 9.48156
299 3 12.6761 2.56718 9.48985
315 3 14.0334 0.24601 9.53218
295 3 11.2577 0.270768 9.41283
85 2 12.4442 2.45489 11.9665
45 1 13.1925 2.55288 12.6369
12 1 11.747 3.83972 11.7543
41 1 12.17 1.42964 11.8474
2 1 14.8447 1.85492 13.3278
6 1 14.9472 3.40968 13.5978
66 2 14.3194 2.70069 13.6968
67 2 11.4064 0.0249804 11.7659
80 2 15.5027 0.772464 12.5092
32 1 15.492 0.864522 11.4893
29 1 15.5112 4.12878 11.9399
69 2 15.8425 4.66029 12.6743
115 3 15.2102 7.25257 0.951941
144 3 12.6213 7.2219 0.960864
187 3 13.9364 6.44703 3.01854
192 3 15.3396 8.85072 3.03689
168 3 12.6671 8.87457 3.07409
148 3 11.2367 6.4673 3.04735
111 3 13.9293 4.88776 0.934749
139 3 11.1443 4.9103 1.01838
211 3 15.175 7.27337 5.18692
240 3 12.5885 7.28126 5.14863
235 3 11.2573 4.97557 5.25245
207 3 13.8875 4.86777 5.22148
287 3 15.3322 8.90421 7.32012
283 3 13.9838 6.45145 7.31667
244 3 11.265 6.49908 7.40907
264 3 12.6416 8.90975 7.36793
336 3 12.6361 7.22339 9.50595
307 3 15.304 7.26243 9.4266
303 3 13.9209 4.85071 9.37608
331 3 11.1661 4.92466 9.43943
37 1 12.2622 6.18826 11.9502
33 1 13.4883 7.028 11.8957
81 2 12.6086 7.07858 11.7821
72 2 11.4484 4.7126 11.6658
7 1 11.7701 8.84115 11.9275
18 1 15.5417 6.41412 12.2095
74 2 15.3218 7.21692 11.8545
22 1 15.9734 7.75962 12.3641
108 3 12.5627 12.0211 0.912999
128 3 15.3387 12.0814 0.871615
152 3 13.9245 11.2305 2.92624
156 3 15.2287 13.5016 3.0774
184 3 12.6345 13.5602 3.02549
180 3 11.3042 11.1038 3.03811
124 3 13.8984 9.53557 0.942255
104 3 11.1641 9.49362 0.975403
204 3 12.6059 11.971 5.18389
224 3 15.239 11.9076 5.10962
200 3 11.2101 9.56733 5.21605
220 3 13.9663 9.68398 5.24388
276 3 11.2459 11.1406 7.35379
252 3 15.2769 13.4473 7.27222
248 3 13.9367 11.163 7.42072
280 3 12.557 13.4636 7.36989
300 3 12.5273 11.9585 9.47099
320 3 15.3583 11.9261 9.41574
296 3 11.2098 9.6543 9.43522
316 3 13.9996 9.55966 9.37966
24 1 11.8325 13.1251 12.054
46 1 12.1532 11.0172 12.0468
86 2 12.7924 11.8152 11.7613
82 2 15.4545 11.8633 12.4237
84 2 11.2327 9.57114 11.8899
42 1 13.7394 11.7695 11.8437
34 1 15.9463 11.1098 12.5402
116 3 15.3044 16.6827 0.940182
143 3 12.7166 16.526 0.911092
167 3 12.5215 18.0926 3.0495
188 3 13.9091 15.8624 3.13137
191 3 15.2889 18.1922 3.01116
147 3 11.335 15.8302 2.98449
112 3 13.9535 14.2925 1.05131
140 3 11.238 14.3181 0.990313
212 3 15.2865 16.6465 5.21819
239 3 12.5732 16.5759 5.27246
208 3 13.8969 14.3109 5.24919
236 3 11.1821 14.3416 5.2521
284 3 13.9535 15.7902 7.33613
243 3 11.2816 15.8014 7.43291
288 3 15.2077 18.2654 7.3701
263 3 12.5467 18.1578 7.40171
335 3 12.7274 16.5316 9.44514
308 3 15.327 16.545 9.36603
304 3 13.9997 14.2673 9.42148
332 3 11.2212 14.3483 9.55023
88 2 12.7579 16.325 11.9638
44 1 13.6592 16.3763 12.3583
48 1 12.6107 15.3737 12.2861
56 1 15.881 15.9012 11.6421
3 1 11.6374 17.7406 11.7583
92 2 15.5893 16.0346 12.5608
40 1 15.7592 17.0129 12.7164
76 2 11.4543 14.049 11.8234
