ITEM: TIMESTEP
120000000
ITEM: NUMBER OF ATOMS
336
ITEM: BOX BOUNDS pp pp pp
0.0000000000000000e+00 1.6167135238600000e+01
0.0000000000000000e+00 1.8668199539200000e+01
0.0000000000000000e+00 2.5747400283800001e+01
ITEM: ATOMS id type x y z
117 3 1.81697 2.66528 0.913246
141 3 4.54339 2.59123 0.964828
145 3 3.22637 1.8251 3.06478
173 3 1.79529 4.19149 2.97843
165 3 4.51309 4.14901 3.06716
169 3 0.46383 1.86367 3.04313
97 3 0.447191 0.399732 0.935181
138 3 3.20534 0.271415 0.974579
213 3 1.83578 2.65485 5.15512
237 3 4.52068 2.63285 5.21103
234 3 3.10627 0.265015 5.24809
193 3 0.449636 0.302774 5.15326
261 3 4.53432 4.13023 7.34236
269 3 1.7764 4.13946 7.27704
267 3 0.415629 1.87438 7.2965
241 3 3.06042 1.94213 7.36298
333 3 4.48321 2.61111 9.51032
309 3 1.80308 2.69304 9.44793
290 3 0.504034 0.292999 9.26094
330 3 3.2182 0.201065 9.5029
89 2 5.30128 4.27956 12.7716
38 1 5.23128 3.82697 11.8445
55 1 3.51119 3.15394 13.1911
91 2 2.85261 2.72699 12.6412
51 1 3.17015 2.65184 11.6812
28 1 0.296697 0.505422 12.7702
4 1 2.4026 0.765599 12.5027
13 1 0.630266 4.65427 12.4757
105 3 4.49266 7.30828 1.00829
133 3 1.91689 7.21406 0.885985
177 3 3.23268 6.54928 3.02926
181 3 4.49011 8.81952 3.01931
161 3 1.80732 8.8736 2.98166
157 3 0.51083 6.50095 2.94732
101 3 3.10927 4.89281 0.968835
129 3 0.404006 4.90592 0.887793
201 3 4.46743 7.34591 5.17394
229 3 1.76717 7.31996 5.16949
197 3 3.09586 4.96744 5.13912
225 3 0.470101 4.96521 5.12587
257 3 1.85093 8.81045 7.31409
277 3 4.47625 8.82623 7.26476
273 3 3.17483 6.52968 7.28157
255 3 0.440647 6.50546 7.39248
297 3 4.44758 7.37262 9.48478
325 3 1.81331 7.32651 9.40204
293 3 3.14134 4.97341 9.35443
321 3 0.460791 4.98818 9.39758
65 2 5.27394 8.84319 12.7962
1 1 5.29094 8.74482 11.7176
26 1 2.2509 6.4805 13.124
30 1 2.64173 5.70565 11.5493
78 2 2.86469 5.82075 12.5881
49 1 4.77924 5.06925 12.5985
73 2 0.988696 8.98169 12.767
17 1 1.35968 9.00296 11.7564
22 1 0.00424706 7.88509 12.319
118 3 1.78969 12.0679 0.832447
142 3 4.60335 12.0405 0.949994
146 3 3.16999 11.1938 2.99378
174 3 1.82259 13.5024 3.04272
166 3 4.49627 13.5193 2.99067
170 3 0.52003 11.121 2.85898
137 3 3.14876 9.62182 0.923123
98 3 0.400908 9.57541 0.913051
214 3 1.79058 11.9512 5.08348
238 3 4.57179 11.8239 5.1805
233 3 3.10915 9.69597 5.18426
194 3 0.4273 9.59715 5.20598
270 3 1.72468 13.5299 7.29366
268 3 0.498976 11.1608 7.23834
242 3 3.13197 11.1932 7.3078
262 3 4.52017 13.4589 7.28031
310 3 1.74106 11.938 9.42971
334 3 4.46836 12.0381 9.41153
289 3 0.479322 9.5499 9.32333
329 3 3.12691 9.56412 9.3258
53 1 4.8394 9.68815 12.9729
71 2 3.52812 11.0433 12.731
94 2 5.20538 13.287 12.746
21 1 1.48286 9.44027 13.3629
11 1 3.05907 11.198 11.8099
15 1 4.02675 11.7904 12.941
62 1 5.31689 13.35 11.5712
95 2 1.09066 13.7488 12.7639
106 3 4.3923 16.6968 0.969824
134 3 1.83379 16.7032 0.949263
162 3 1.80594 18.2033 3.04439
178 3 3.1118 15.925 3.05083
182 3 4.57457 18.1792 3.02052
158 3 0.522612 15.8538 3.03686
102 3 3.13133 14.2742 0.941615
130 3 0.521666 14.3617 0.961063
202 3 4.51615 16.6119 5.28738
230 3 1.83458 16.7076 5.15314
226 3 0.404849 14.3028 5.19366
198 3 3.10774 14.2721 5.20158
256 3 0.505191 15.8343 7.26552
278 3 4.47208 18.2024 7.34374
274 3 3.18813 15.8281 7.32438
258 3 1.82061 18.1707 7.392
298 3 4.495 16.562 9.4515
326 3 1.79039 16.6528 9.36001
294 3 3.08944 14.2163 9.40847
322 3 0.39035 14.3144 9.42156
57 1 3.9593 16.4313 12.0615
93 2 4.68848 16.2392 12.7721
61 1 4.38052 16.8423 13.4098
63 1 0.833207 14.5552 13.4079
8 1 2.06688 18.0044 11.9309
58 1 4.87684 14.044 13.0912
68 2 2.03898 18.5827 12.8101
9 1 1.51135 14.1439 12.0029
114 3 7.1067 2.65895 0.936402
135 3 9.73987 2.65872 1.0062
159 3 8.53393 1.8296 2.98911
189 3 7.1294 4.13341 3.12731
163 3 9.90225 4.18503 3.08469
186 3 5.89856 1.84309 3.09604
110 3 5.84926 0.22828 0.908987
131 3 8.60798 0.30351 0.901658
210 3 7.21503 2.62742 5.17454
231 3 9.89862 2.64628 5.22843
227 3 8.50659 0.281622 5.24584
206 3 5.80145 0.284208 5.24912
282 3 5.75047 1.88424 7.36823
254 3 8.58568 1.894 7.42452
286 3 7.22593 4.16749 7.37485
259 3 9.85849 4.21892 7.41313
327 3 9.78161 2.68315 9.50102
306 3 7.09246 2.55977 9.46181
302 3 5.77173 0.376361 9.49967
323 3 8.58556 0.337389 9.41532
27 1 8.22016 1.25854 11.9863
64 1 7.37529 3.15396 11.6442
96 2 7.82808 2.74365 12.4658
60 1 6.98525 2.88153 13.1153
79 2 8.60756 0.369618 11.6328
23 1 8.61761 4.57904 13.0572
59 1 10.6082 0.251112 12.2768
120 3 9.83831 7.19841 0.997369
125 3 7.22394 7.26919 1.00278
153 3 7.15482 8.85537 3.07844
172 3 8.51788 6.58274 3.1731
176 3 9.90569 8.76644 3.14289
149 3 5.84453 6.5566 3.1353
121 3 5.75631 4.86115 1.05175
100 3 8.46305 4.91881 1.07925
216 3 10.0304 7.24604 5.29465
221 3 7.18268 7.24148 5.27404
217 3 5.81058 5.018 5.26317
196 3 8.45367 4.95186 5.18585
265 3 8.49491 6.52674 7.34923
249 3 7.1137 8.80078 7.4065
272 3 9.9523 8.76739 7.39627
245 3 5.86309 6.49343 7.44278
317 3 7.25113 7.28002 9.55646
312 3 9.7844 7.1335 9.51237
291 3 8.54166 4.8845 9.51001
313 3 5.83421 4.83081 9.54857
35 1 6.92078 7.7272 12.8925
39 1 8.41685 7.85044 12.2302
19 1 8.5625 6.0186 13.3111
83 2 7.59034 7.19051 12.3415
75 2 9.19544 5.25754 13.4964
16 1 10.5411 4.8407 12.1147
113 3 7.30029 11.9159 0.962556
136 3 9.85281 11.9581 1.00376
160 3 8.6163 11.147 3.17536
190 3 7.18613 13.4816 3.06094
164 3 9.86229 13.4901 3.05026
185 3 5.88384 11.1898 2.96304
109 3 5.91709 9.53023 1.02236
132 3 8.59005 9.59911 1.04183
209 3 7.18432 11.9049 5.17851
232 3 9.92428 11.8678 5.31432
205 3 5.93539 9.59879 5.19957
228 3 8.51881 9.62239 5.21776
253 3 8.49392 11.1399 7.35502
285 3 7.17959 13.5461 7.35064
260 3 9.8995 13.5448 7.35775
281 3 5.86139 11.1394 7.40092
305 3 7.29603 12.044 9.44137
328 3 9.93785 11.9419 9.39978
324 3 8.49225 9.58491 9.40211
301 3 5.83376 9.61342 9.44117
14 1 8.1476 10.1633 13.209
10 1 8.42084 10.7311 11.7803
70 2 8.84729 10.0294 12.5131
36 1 10.3113 9.61884 11.9407
25 1 8.16368 13.6344 13.6325
90 2 7.14393 11.1763 14.1984
50 1 6.4595 11.7783 13.7493
52 1 8.26376 13.56 12.0736
54 1 6.71674 10.4516 14.7522
119 3 9.96607 16.6695 1.05165
126 3 7.28691 16.5909 0.959659
154 3 7.18472 18.2543 3.12192
171 3 8.54773 15.8419 3.00499
175 3 9.88078 18.1905 3.0655
150 3 5.85953 15.9051 3.04628
122 3 5.92588 14.4396 0.947494
99 3 8.57339 14.2386 0.962772
215 3 9.94487 16.6147 5.22098
222 3 7.21507 16.6965 5.17543
195 3 8.55053 14.3016 5.1274
218 3 5.8724 14.4178 5.16089
271 3 9.85495 18.1754 7.30637
266 3 8.61532 15.8566 7.40775
250 3 7.14581 18.1982 7.43979
246 3 5.83356 15.8911 7.35715
318 3 7.23042 16.6529 9.49636
311 3 9.81957 16.6095 9.45097
314 3 5.81142 14.3591 9.39718
292 3 8.54209 14.2491 9.42943
87 2 7.18119 16.8236 12.0218
47 1 7.67565 15.9705 12.378
43 1 6.21649 16.765 12.1935
31 1 8.13147 18.2327 11.9128
20 1 10.5133 14.1196 12.308
77 2 8.5359 14.1559 12.8561
107 3 12.5562 2.74159 0.944171
127 3 15.2548 2.60557 0.963767
151 3 13.8515 1.83471 2.95312
155 3 15.2285 4.21764 3.03978
183 3 12.5336 4.19703 3.03322
179 3 11.1729 1.82835 3.07388
123 3 13.9237 0.357737 0.874204
103 3 11.3086 0.276596 0.976006
203 3 12.5767 2.56133 5.14968
223 3 15.3742 2.62278 5.15463
219 3 13.937 0.338432 5.24619
199 3 11.2638 0.258615 5.26162
247 3 13.9618 1.90926 7.31478
251 3 15.324 4.15062 7.30395
275 3 11.2544 1.86465 7.36949
279 3 12.5386 4.15097 7.40394
319 3 15.2023 2.60683 9.45731
299 3 12.6838 2.57659 9.47674
315 3 14.0763 0.217814 9.51644
295 3 11.2673 0.229477 9.43395
45 1 13.2136 2.54379 12.6717
41 1 12.2345 1.46071 11.8951
12 1 11.6911 3.75058 12.0208
85 2 12.4117 2.44144 11.9717
2 1 14.8169 1.96211 13.2208
66 2 14.3288 2.64261 13.6463
67 2 11.4333 0.0527618 11.7081
6 1 14.7902 3.37896 13.5881
32 1 15.4462 1.02622 11.6719
80 2 15.4932 0.708713 12.5574
29 1 15.3505 4.24983 11.9487
69 2 15.8726 4.66463 12.6274
115 3 15.2205 7.20798 0.949675
144 3 12.6243 7.22297 0.983279
187 3 13.9501 6.4255 3.01142
192 3 15.3688 8.81867 3.02376
168 3 12.6671 8.87871 3.08401
148 3 11.2234 6.47677 3.05298
139 3 11.1516 4.93291 1.00582
111 3 13.9094 4.88267 0.923369
211 3 15.1818 7.26745 5.2112
240 3 12.57 7.29168 5.17531
207 3 13.9058 4.89157 5.20144
235 3 11.247 4.97441 5.27119
287 3 15.3299 8.87072 7.31974
283 3 13.952 6.42399 7.34592
244 3 11.2491 6.51865 7.40751
264 3 12.6089 8.88694 7.37381
336 3 12.6235 7.23247 9.51026
307 3 15.3117 7.25009 9.38886
331 3 11.1692 4.90834 9.43045
303 3 13.9137 4.85566 9.36328
33 1 13.6208 7.15034 12.129
37 1 12.3832 6.12774 12.0655
81 2 12.6664 7.10873 11.756
72 2 11.5176 4.69541 11.6751
7 1 11.7275 8.68905 12.1701
74 2 15.3821 7.27955 11.8439
18 1 15.592 6.3138 12.197
108 3 12.5537 12.0417 0.918113
128 3 15.3294 12.0824 0.877916
152 3 13.9226 11.2243 2.93637
156 3 15.2143 13.5265 3.07798
184 3 12.6235 13.5958 3.02944
180 3 11.2997 11.0868 3.01467
124 3 13.9087 9.51904 0.939389
104 3 11.1706 9.48766 0.987579
204 3 12.624 11.9931 5.19361
224 3 15.2152 11.9371 5.07746
200 3 11.2181 9.58966 5.195
220 3 13.9679 9.69267 5.20695
276 3 11.2349 11.1393 7.34598
252 3 15.2924 13.4672 7.27546
248 3 13.9526 11.1375 7.423
280 3 12.5164 13.4763 7.38546
320 3 15.3897 11.9033 9.42538
300 3 12.535 11.9618 9.46068
316 3 14.011 9.55343 9.39793
296 3 11.213 9.6507 9.46454
42 1 13.7187 11.668 12.0014
82 2 15.3452 11.87 12.4051
46 1 12.1814 11.0385 11.8773
24 1 11.7897 13.1774 12.0589
86 2 12.7884 11.8144 11.7433
84 2 11.308 9.58516 11.8635
34 1 15.9076 10.9477 12.5854
5 1 15.9602 12.5499 12.4835
116 3 15.3309 16.701 0.94373
143 3 12.6903 16.5316 0.912174
188 3 13.9135 15.8855 3.13631
191 3 15.2842 18.2198 3.02959
167 3 12.5248 18.0756 3.02045
147 3 11.3156 15.8368 2.99094
112 3 13.9583 14.3017 1.04521
140 3 11.2449 14.2885 1.00109
212 3 15.2276 16.6494 5.24608
239 3 12.5969 16.5918 5.2894
208 3 13.8948 14.2833 5.24596
236 3 11.1724 14.3464 5.23301
284 3 13.9558 15.8207 7.30709
243 3 11.2928 15.7919 7.42061
263 3 12.5568 18.164 7.40275
288 3 15.1934 18.2061 7.35732
308 3 15.3239 16.5497 9.38566
335 3 12.7024 16.5232 9.46792
304 3 14.0474 14.278 9.44828
332 3 11.2098 14.3689 9.55401
48 1 12.4795 15.3191 12.1328
88 2 12.7237 16.3133 11.9058
44 1 13.6485 16.2282 12.2534
3 1 11.6029 17.7433 11.8417
56 1 15.8562 15.6581 11.7188
92 2 15.6163 16.0125 12.5722
40 1 15.7553 16.9898 12.5273
76 2 11.4247 14.0817 11.8202
