ITEM: TIMESTEP
120000000
ITEM: NUMBER OF ATOMS
336
ITEM: BOX BOUNDS pp pp pp
0.0000000000000000e+00 1.6167135238600000e+01
0.0000000000000000e+00 1.8668199539200000e+01
0.0000000000000000e+00 2.5747400283800001e+01
ITEM: ATOMS id type x y z
117 3 1.79586 2.67302 0.895791
141 3 4.54307 2.57391 0.945996
145 3 3.20974 1.82464 3.05488
165 3 4.50195 4.12668 3.06174
173 3 1.79905 4.20298 2.98051
169 3 0.454926 1.87878 3.0443
97 3 0.45179 0.381665 0.887931
138 3 3.23183 0.280203 0.989643
213 3 1.86718 2.64725 5.1498
237 3 4.50287 2.61504 5.21349
193 3 0.413482 0.309631 5.16896
234 3 3.09396 0.252636 5.23212
261 3 4.52752 4.16681 7.3333
269 3 1.76211 4.16859 7.3009
267 3 0.449304 1.85413 7.33691
241 3 3.03974 1.9252 7.34422
309 3 1.7702 2.69866 9.46328
333 3 4.47109 2.61065 9.51905
330 3 3.20977 0.186915 9.49726
290 3 0.497231 0.31529 9.27791
4 1 2.37517 0.871969 12.7325
55 1 3.63333 3.25291 13.1251
91 2 2.88547 2.72051 12.6898
51 1 3.13341 2.78066 11.793
38 1 5.26668 3.81301 11.8774
89 2 5.25087 4.25061 12.8928
28 1 0.263661 0.62253 12.8765
13 1 0.614765 4.30224 12.5056
105 3 4.47661 7.32113 0.971867
133 3 1.9474 7.21262 0.879172
177 3 3.20138 6.55634 3.02815
181 3 4.48074 8.83947 3.02127
161 3 1.82475 8.86853 2.98541
157 3 0.509534 6.52745 2.93446
129 3 0.389428 4.89588 0.881352
101 3 3.10535 4.87086 0.980516
201 3 4.50828 7.34942 5.18709
229 3 1.76753 7.33161 5.17455
197 3 3.09107 4.93858 5.15533
225 3 0.447243 4.99834 5.13114
257 3 1.83341 8.81623 7.30562
277 3 4.49009 8.81895 7.26323
273 3 3.13795 6.55315 7.29119
255 3 0.434314 6.51159 7.38112
297 3 4.48641 7.35521 9.47669
325 3 1.84247 7.32308 9.39542
293 3 3.12724 4.98895 9.35431
321 3 0.429617 4.94666 9.40113
65 2 5.31668 8.87963 12.7271
1 1 5.21184 8.79157 11.7266
30 1 2.55091 5.55623 11.738
26 1 2.22087 6.3636 12.9964
78 2 2.87659 5.8171 12.6724
73 2 0.987559 9.05601 12.7259
49 1 4.76072 5.01449 12.889
17 1 1.36528 8.84088 11.7765
118 3 1.80988 12.0961 0.823818
142 3 4.56794 12.0802 0.967269
146 3 3.17524 11.1974 2.97667
174 3 1.82784 13.4845 3.04071
166 3 4.51077 13.5308 3.01806
170 3 0.542398 11.1189 2.88303
137 3 3.14332 9.61811 0.915226
98 3 0.392631 9.54913 0.886555
214 3 1.81499 11.9226 5.10273
238 3 4.56046 11.8205 5.2061
194 3 0.457034 9.57102 5.2006
233 3 3.09788 9.66307 5.19312
270 3 1.71796 13.5168 7.32817
268 3 0.501385 11.1628 7.2462
242 3 3.09747 11.1702 7.31714
262 3 4.51559 13.4546 7.27384
334 3 4.47411 12.0506 9.43851
310 3 1.74464 11.9348 9.40163
329 3 3.13558 9.59132 9.34833
289 3 0.491593 9.55769 9.29912
15 1 4.08112 11.8181 12.7081
95 2 1.17509 13.7315 12.7968
62 1 5.37781 13.2961 11.6201
21 1 1.68184 9.57068 13.322
11 1 3.35586 11.3833 11.8023
71 2 3.47612 11.0027 12.7253
94 2 5.16498 13.2057 12.6915
9 1 1.49447 13.949 11.9419
53 1 4.69748 9.60139 12.7121
106 3 4.40538 16.6972 0.970405
134 3 1.82132 16.7039 0.939656
162 3 1.8121 18.1884 3.05738
178 3 3.11845 15.9216 3.04719
182 3 4.56533 18.2124 3.06547
158 3 0.548622 15.8456 3.04819
102 3 3.1386 14.2644 0.956978
130 3 0.526119 14.3431 0.925951
202 3 4.50249 16.6059 5.2686
230 3 1.82775 16.725 5.1573
198 3 3.12527 14.269 5.20774
226 3 0.407758 14.2734 5.19406
256 3 0.474624 15.8312 7.25319
278 3 4.45021 18.1881 7.32622
274 3 3.1806 15.8005 7.32161
258 3 1.84703 18.178 7.40755
326 3 1.79943 16.6398 9.36569
298 3 4.4825 16.5162 9.47281
294 3 3.07901 14.2452 9.38399
322 3 0.369896 14.2871 9.40913
93 2 4.69652 16.1842 12.828
61 1 4.14751 16.7341 13.492
63 1 0.834805 14.5594 13.236
57 1 4.07835 16.4569 12.0031
58 1 4.98507 14.0473 13.2346
8 1 1.92354 17.9023 12.0089
68 2 2.05519 18.5813 12.865
114 3 7.12753 2.66744 0.958268
135 3 9.74429 2.65376 1.01836
159 3 8.52342 1.81213 3.04305
189 3 7.1302 4.13823 3.14758
163 3 9.90711 4.16872 3.08449
186 3 5.90965 1.87799 3.09895
110 3 5.85816 0.241843 0.914706
131 3 8.62165 0.343698 0.941258
210 3 7.21121 2.63449 5.18007
231 3 9.8969 2.63827 5.22536
227 3 8.501 0.25789 5.2358
206 3 5.79998 0.310733 5.23871
282 3 5.76294 1.91434 7.34158
286 3 7.21153 4.14292 7.34872
254 3 8.5695 1.88237 7.43017
259 3 9.85175 4.23793 7.4084
327 3 9.78081 2.69729 9.48246
306 3 7.09035 2.56563 9.45808
323 3 8.60691 0.330536 9.42337
302 3 5.79332 0.387895 9.47664
60 1 7.0621 3.0183 13.098
27 1 8.2039 1.18471 11.9753
64 1 7.32262 3.11781 11.5663
96 2 7.83696 2.65614 12.5034
79 2 8.59023 0.287157 11.5596
23 1 8.70093 4.44138 13.1821
59 1 10.5927 0.225934 12.3387
120 3 9.81511 7.21581 0.992803
125 3 7.22109 7.26421 1.00838
172 3 8.50891 6.57871 3.15306
153 3 7.16275 8.86569 3.07895
176 3 9.87828 8.7592 3.13453
149 3 5.83834 6.53759 3.10975
100 3 8.49201 4.90909 1.10064
121 3 5.76636 4.85923 1.03254
216 3 9.99854 7.24011 5.32612
221 3 7.16289 7.26146 5.28224
196 3 8.44931 4.96849 5.19328
217 3 5.80196 5.02377 5.2855
249 3 7.11926 8.84249 7.40872
272 3 9.95571 8.76497 7.42012
245 3 5.86167 6.50898 7.43184
265 3 8.48082 6.53257 7.3683
317 3 7.22702 7.2681 9.53892
312 3 9.78325 7.13847 9.5437
291 3 8.54816 4.87972 9.51634
313 3 5.83956 4.83922 9.54292
19 1 8.62787 6.10366 13.4071
83 2 7.61322 7.21194 12.3414
39 1 8.36262 7.86711 12.1374
35 1 6.97783 7.66848 12.8707
75 2 9.22043 5.18685 13.5128
16 1 10.5461 4.84454 12.1611
113 3 7.29792 11.9114 1.01445
136 3 9.84122 11.9642 0.990412
160 3 8.60097 11.1345 3.17453
190 3 7.16461 13.503 3.03623
164 3 9.88514 13.4925 3.07491
185 3 5.86772 11.1831 2.92939
109 3 5.96589 9.52881 1.0269
132 3 8.6024 9.58854 1.00902
209 3 7.20952 11.909 5.18705
232 3 9.95098 11.8803 5.31228
205 3 5.92557 9.60571 5.18493
228 3 8.53921 9.61452 5.21159
260 3 9.867 13.5293 7.34759
253 3 8.467 11.1682 7.35082
281 3 5.85128 11.158 7.34982
285 3 7.1663 13.542 7.35788
328 3 9.95896 11.934 9.40435
305 3 7.30371 12.03 9.44436
301 3 5.84639 9.59085 9.43388
324 3 8.47635 9.55517 9.39134
70 2 8.82549 9.97687 12.4229
10 1 8.47772 10.6317 11.7015
14 1 8.17218 10.3604 13.033
50 1 6.47918 11.6466 13.8279
36 1 10.2775 9.59268 11.9975
90 2 7.12896 11.1895 14.2735
25 1 8.11378 13.5263 13.5432
52 1 8.37614 13.5298 11.9548
54 1 6.65251 10.4015 14.7731
119 3 9.9316 16.6501 1.00479
126 3 7.26626 16.5936 0.96607
171 3 8.53207 15.8354 3.0082
154 3 7.19393 18.2293 3.1259
175 3 9.87017 18.2149 3.04734
150 3 5.84128 15.9037 3.06432
122 3 5.96018 14.4583 0.965538
99 3 8.56905 14.2216 0.964871
215 3 9.97388 16.588 5.2018
222 3 7.23083 16.6982 5.15438
195 3 8.55184 14.3005 5.13167
218 3 5.87402 14.3919 5.14097
271 3 9.84478 18.2053 7.32195
246 3 5.83851 15.9073 7.33544
266 3 8.61511 15.8811 7.43048
250 3 7.14695 18.2037 7.40737
318 3 7.21422 16.6285 9.47698
311 3 9.82513 16.648 9.46069
314 3 5.82708 14.3189 9.38531
292 3 8.56671 14.2294 9.43598
47 1 7.68994 16.2091 12.3687
31 1 7.99544 18.2737 12.0371
87 2 7.14489 16.9084 12.0167
43 1 6.17787 16.7265 12.345
77 2 8.58938 14.1401 12.8126
20 1 10.4811 14.213 12.236
107 3 12.5375 2.78438 0.909548
127 3 15.2669 2.61221 0.959965
151 3 13.8729 1.83349 2.9601
155 3 15.2321 4.22137 3.0381
183 3 12.5383 4.21754 3.05561
179 3 11.1976 1.7888 3.04203
123 3 13.9048 0.374091 0.862185
103 3 11.3273 0.338898 0.968679
203 3 12.5703 2.61354 5.17488
223 3 15.3413 2.62959 5.14504
219 3 13.9449 0.340564 5.24912
199 3 11.2635 0.259878 5.26934
247 3 13.9787 1.90133 7.30895
251 3 15.3136 4.14894 7.28979
275 3 11.2375 1.84568 7.36353
279 3 12.5761 4.12082 7.40049
319 3 15.1945 2.61167 9.48626
299 3 12.6768 2.58213 9.48547
315 3 14.0367 0.234595 9.51201
295 3 11.2641 0.285476 9.41855
45 1 13.2414 2.65025 12.6262
41 1 12.2573 1.50549 11.8687
85 2 12.4238 2.45187 11.9635
12 1 11.6736 3.80177 11.9678
66 2 14.2971 2.71239 13.7184
2 1 14.8457 1.75568 13.3856
32 1 15.4435 0.837578 11.5547
6 1 14.9209 3.37126 13.7201
80 2 15.5476 0.77204 12.5105
67 2 11.4312 0.03484 11.7598
29 1 15.5514 4.1354 11.8964
115 3 15.2023 7.22552 0.943495
144 3 12.6178 7.2291 0.970282
187 3 13.9357 6.45111 3.02038
192 3 15.3505 8.84598 3.04577
168 3 12.6763 8.86218 3.07935
148 3 11.2452 6.48034 3.04409
111 3 13.912 4.87494 0.943785
139 3 11.1498 4.92454 1.01668
211 3 15.1862 7.28469 5.19837
240 3 12.582 7.27822 5.15337
235 3 11.2549 4.96614 5.25775
207 3 13.9045 4.87435 5.21396
287 3 15.3314 8.90331 7.3259
283 3 13.9737 6.4511 7.32445
244 3 11.2616 6.50692 7.41406
264 3 12.6508 8.89857 7.36357
336 3 12.641 7.22406 9.5061
307 3 15.2932 7.25077 9.42783
303 3 13.9021 4.83865 9.3807
331 3 11.1619 4.9149 9.44497
33 1 13.5607 7.04414 11.9066
37 1 12.3566 6.20918 12.0166
81 2 12.6155 7.06241 11.7835
18 1 15.5127 6.33135 12.2328
7 1 11.7274 8.89121 12.0673
72 2 11.4773 4.74898 11.7036
74 2 15.3207 7.21959 11.8661
22 1 15.9147 7.78755 12.3023
69 2 15.8854 4.68113 12.6344
108 3 12.5659 12.0288 0.922432
128 3 15.3531 12.0678 0.863167
152 3 13.9198 11.2434 2.9324
156 3 15.2359 13.5013 3.07122
184 3 12.6373 13.5524 3.01758
180 3 11.3044 11.0991 3.03714
104 3 11.1608 9.49249 0.964793
124 3 13.9075 9.52681 0.926686
204 3 12.5989 11.979 5.19861
224 3 15.2277 11.9147 5.0814
200 3 11.2123 9.58562 5.22777
220 3 13.9774 9.68988 5.24141
276 3 11.2333 11.1348 7.35239
252 3 15.2848 13.4542 7.26634
248 3 13.9449 11.1671 7.41015
280 3 12.5508 13.4639 7.37833
320 3 15.3545 11.9347 9.42181
300 3 12.5376 11.9538 9.47277
296 3 11.2169 9.664 9.4416
316 3 13.9981 9.54358 9.38727
46 1 12.1712 11.0683 11.9717
86 2 12.7964 11.8232 11.7349
82 2 15.4658 11.8606 12.412
24 1 11.8514 13.1216 12.0468
34 1 16.0069 11.0173 12.5535
42 1 13.7779 11.733 12.0096
84 2 11.2352 9.58674 11.8857
5 1 16.1271 12.5393 12.3204
116 3 15.309 16.6861 0.95418
143 3 12.7096 16.5391 0.918943
167 3 12.537 18.0955 3.04216
188 3 13.8995 15.8745 3.12317
191 3 15.2945 18.1801 3.01461
147 3 11.3155 15.8364 2.98269
112 3 13.954 14.2995 1.06778
140 3 11.2521 14.3173 0.990349
212 3 15.255 16.6597 5.23528
239 3 12.5678 16.5638 5.28786
208 3 13.8976 14.2939 5.25504
236 3 11.1781 14.3417 5.24855
284 3 13.9534 15.7959 7.33485
263 3 12.5386 18.1646 7.39978
243 3 11.2782 15.8093 7.40449
288 3 15.203 18.233 7.37507
335 3 12.7266 16.537 9.44596
308 3 15.3266 16.5324 9.35931
304 3 14.0141 14.2812 9.4248
332 3 11.2167 14.3343 9.54116
48 1 12.5335 15.429 12.3489
44 1 13.7189 16.3507 12.3356
88 2 12.7653 16.3484 11.9672
3 1 11.6388 17.6845 11.7107
92 2 15.5655 16.0491 12.5732
56 1 15.8272 15.852 11.6331
40 1 15.8037 16.903 12.6075
76 2 11.4605 14.0915 11.8298
