ITEM: TIMESTEP
120000000
ITEM: NUMBER OF ATOMS
336
ITEM: BOX BOUNDS pp pp pp
0.0000000000000000e+00 1.6167135238600000e+01
0.0000000000000000e+00 1.8668199539200000e+01
0.0000000000000000e+00 2.5747400283800001e+01
ITEM: ATOMS id type x y z
117 3 1.80762 2.66916 0.903287
141 3 4.52068 2.5945 0.948893
145 3 3.22103 1.8401 3.06087
173 3 1.79643 4.19575 2.97957
165 3 4.48184 4.12815 3.06757
169 3 0.463341 1.86872 3.04378
97 3 0.467619 0.404545 0.895946
138 3 3.25867 0.287378 0.984325
213 3 1.8581 2.66339 5.154
237 3 4.47817 2.63664 5.22182
193 3 0.40489 0.320809 5.16259
234 3 3.09731 0.25438 5.25219
267 3 0.436939 1.87256 7.34938
241 3 3.05074 1.90993 7.35331
269 3 1.7683 4.17287 7.29139
261 3 4.52262 4.14835 7.36937
333 3 4.47891 2.61695 9.52556
309 3 1.77655 2.68591 9.46118
330 3 3.22658 0.196826 9.49834
290 3 0.485851 0.317594 9.29618
38 1 5.2298 3.84277 11.7329
51 1 3.04921 2.74098 11.8416
28 1 0.248723 0.680186 12.7897
91 2 2.85766 2.73209 12.7059
55 1 3.68244 3.23794 13.1878
4 1 2.38164 0.760184 12.714
89 2 5.23889 4.27473 12.8619
13 1 0.540772 4.54511 12.56
105 3 4.44327 7.30364 0.99519
133 3 1.92783 7.22308 0.861668
177 3 3.22178 6.54484 3.02032
181 3 4.48377 8.81344 3.04225
161 3 1.84136 8.85845 3.00182
157 3 0.523145 6.52216 2.94129
129 3 0.380008 4.87609 0.869316
101 3 3.12503 4.8761 0.98848
201 3 4.50612 7.3752 5.16885
229 3 1.75702 7.33393 5.19934
197 3 3.10458 4.93252 5.1489
225 3 0.467474 4.97523 5.14887
257 3 1.8395 8.81334 7.32686
277 3 4.47572 8.80641 7.25894
273 3 3.16252 6.54177 7.29216
255 3 0.451459 6.52707 7.37543
297 3 4.4907 7.35864 9.46251
325 3 1.8223 7.32824 9.41113
293 3 3.13336 4.99013 9.33029
321 3 0.405166 4.94366 9.43461
26 1 2.19175 6.44286 12.9859
65 2 5.30581 8.87876 12.7614
30 1 2.51848 5.69494 11.8499
1 1 5.24225 8.721 11.7053
78 2 2.8774 5.82066 12.6706
73 2 1.04532 9.03546 12.7294
49 1 4.78216 5.15045 12.7876
17 1 1.35086 8.88773 11.7489
118 3 1.80772 12.0868 0.809985
142 3 4.59014 12.067 0.955089
146 3 3.18667 11.1817 2.97521
174 3 1.79906 13.4829 3.06183
166 3 4.49651 13.5303 3.021
170 3 0.535034 11.1201 2.88529
137 3 3.12841 9.63957 0.919064
98 3 0.402111 9.56707 0.882121
214 3 1.81843 11.9376 5.09143
238 3 4.56687 11.8332 5.18412
194 3 0.44569 9.58054 5.21238
233 3 3.12105 9.68001 5.17409
270 3 1.73866 13.5215 7.3128
262 3 4.51788 13.4923 7.27325
268 3 0.500776 11.1594 7.26189
242 3 3.10124 11.1808 7.30491
310 3 1.73886 11.9223 9.42816
334 3 4.4573 12.0338 9.43653
329 3 3.11214 9.58774 9.34997
289 3 0.494704 9.56809 9.29913
53 1 4.87622 9.71646 12.7368
94 2 5.16803 13.2132 12.6679
21 1 1.66917 9.66401 13.2289
11 1 3.37561 11.3511 11.7996
15 1 4.04825 11.8324 12.8867
71 2 3.4374 11.0329 12.7214
62 1 5.31848 13.2524 11.7287
95 2 1.14196 13.7652 12.7739
106 3 4.41317 16.6947 0.962848
134 3 1.83129 16.7134 0.946937
162 3 1.8101 18.1852 3.04317
178 3 3.11979 15.9167 3.05574
182 3 4.58714 18.2173 3.04522
158 3 0.561182 15.85 3.03421
102 3 3.12632 14.2636 0.955988
130 3 0.538405 14.3368 0.915901
202 3 4.50584 16.6211 5.26003
230 3 1.84992 16.7365 5.15817
198 3 3.11465 14.271 5.20762
226 3 0.413863 14.2946 5.19709
256 3 0.475168 15.818 7.2584
278 3 4.45757 18.1753 7.32598
274 3 3.18949 15.8215 7.30804
258 3 1.83512 18.1723 7.40386
298 3 4.4814 16.5314 9.43801
326 3 1.79761 16.6377 9.37342
294 3 3.07663 14.2342 9.38687
322 3 0.375419 14.2915 9.40717
93 2 4.66487 16.1804 12.803
63 1 0.822656 14.5777 13.2466
61 1 4.08107 16.6354 13.4487
57 1 4.07976 16.4121 12.0219
58 1 4.9538 14.1015 13.2256
8 1 1.89489 17.8938 12.0719
68 2 2.04596 18.5319 12.9172
9 1 1.40053 14.1348 11.9374
114 3 7.11885 2.6347 0.953643
135 3 9.74199 2.66184 0.997636
159 3 8.53272 1.84311 3.03329
163 3 9.90924 4.17016 3.06699
189 3 7.12236 4.15516 3.16764
186 3 5.88953 1.87201 3.10628
110 3 5.84234 0.265574 0.910313
131 3 8.59553 0.334595 0.91142
210 3 7.21934 2.64267 5.17788
231 3 9.908 2.62982 5.21309
227 3 8.51278 0.264166 5.24302
206 3 5.82841 0.327031 5.24983
282 3 5.73645 1.89652 7.33455
286 3 7.2099 4.13917 7.36491
259 3 9.84396 4.20598 7.42847
254 3 8.57002 1.8747 7.4357
327 3 9.75875 2.70203 9.48495
306 3 7.07707 2.57159 9.45415
323 3 8.60152 0.329096 9.41785
302 3 5.80038 0.364982 9.50416
96 2 7.80622 2.68296 12.5276
27 1 8.36362 1.23146 11.9056
64 1 7.32229 3.13024 11.6749
60 1 6.99251 2.86496 13.0747
79 2 8.57894 0.314209 11.596
23 1 8.80842 4.42299 13.2098
59 1 10.5795 0.249968 12.2648
120 3 9.82139 7.20526 1.00153
125 3 7.23884 7.2666 0.991474
172 3 8.50203 6.57334 3.15328
153 3 7.14983 8.89174 3.08633
176 3 9.90418 8.76731 3.1378
149 3 5.82899 6.51952 3.11288
100 3 8.47349 4.92585 1.09706
121 3 5.76332 4.8402 1.03158
216 3 9.99889 7.23434 5.3249
221 3 7.18104 7.27055 5.25848
196 3 8.44554 4.97662 5.19271
217 3 5.78769 5.03283 5.27597
265 3 8.46003 6.53018 7.35087
249 3 7.11725 8.85064 7.39113
272 3 9.96457 8.75728 7.42655
245 3 5.85403 6.48666 7.42147
312 3 9.75985 7.11564 9.51308
317 3 7.22811 7.26084 9.54164
291 3 8.54395 4.89087 9.51034
313 3 5.82872 4.82691 9.56733
35 1 7.00436 7.74923 12.9329
83 2 7.58031 7.20835 12.3544
19 1 8.60103 5.94764 13.3753
39 1 8.41449 7.73007 12.157
75 2 9.21132 5.21287 13.4763
16 1 10.5656 4.91235 12.2534
113 3 7.31533 11.9152 1.02902
136 3 9.82805 11.9662 0.992612
160 3 8.61771 11.1374 3.17112
190 3 7.1825 13.4997 3.02504
164 3 9.86414 13.4804 3.0854
185 3 5.88036 11.1679 2.92929
109 3 5.9574 9.5238 0.999994
132 3 8.6157 9.58131 1.02187
209 3 7.2032 11.9081 5.19786
232 3 9.94604 11.8832 5.28167
205 3 5.95488 9.61788 5.20111
228 3 8.54529 9.6187 5.22251
260 3 9.88014 13.5261 7.35538
253 3 8.46204 11.1554 7.35623
285 3 7.17487 13.5396 7.3505
281 3 5.85746 11.1365 7.37362
328 3 9.95062 11.9313 9.39357
305 3 7.28855 12.0324 9.43066
301 3 5.84613 9.58084 9.43255
324 3 8.48753 9.54257 9.37482
10 1 8.34828 10.7738 11.7667
70 2 8.82401 10.0163 12.4313
14 1 8.34251 10.4902 13.1002
36 1 10.2145 9.54901 11.9044
50 1 6.37779 11.6062 13.9302
90 2 7.10294 11.1994 14.3233
52 1 8.42469 13.5505 11.9862
25 1 8.02136 13.6377 13.6191
54 1 6.85465 10.3736 14.7136
119 3 9.92173 16.6463 1.01305
126 3 7.26487 16.6068 0.973865
171 3 8.51941 15.8564 3.01887
154 3 7.20156 18.2337 3.14718
175 3 9.87877 18.2035 3.06734
150 3 5.84586 15.9226 3.05768
122 3 5.97086 14.4521 0.954115
99 3 8.53791 14.2143 0.983001
215 3 9.97151 16.5955 5.18023
222 3 7.24034 16.6963 5.16051
195 3 8.56517 14.2977 5.11733
218 3 5.86439 14.3871 5.14328
271 3 9.84016 18.1879 7.32181
246 3 5.8532 15.9086 7.31959
266 3 8.62805 15.8756 7.43299
250 3 7.14056 18.1791 7.40983
318 3 7.22063 16.6177 9.47913
311 3 9.83502 16.6354 9.46515
314 3 5.82725 14.326 9.41057
292 3 8.56658 14.2593 9.45557
47 1 7.72997 16.1628 12.3565
43 1 6.17166 16.8768 12.4126
87 2 7.15998 16.8669 12.1268
31 1 8.04653 18.2079 12.0506
77 2 8.55395 14.1772 12.8449
20 1 10.4943 14.2485 12.2394
107 3 12.5523 2.77288 0.907567
127 3 15.2675 2.60479 0.973062
151 3 13.8567 1.85529 2.94506
155 3 15.2212 4.22282 3.02943
183 3 12.5362 4.20659 3.06116
179 3 11.2037 1.80919 3.06117
123 3 13.9 0.35841 0.896077
103 3 11.3251 0.321214 0.974353
203 3 12.5767 2.60157 5.17258
223 3 15.3434 2.62084 5.16022
219 3 13.9436 0.354 5.26642
199 3 11.2616 0.271769 5.27841
247 3 13.9826 1.92555 7.3136
251 3 15.325 4.15871 7.27643
275 3 11.2347 1.85116 7.36773
279 3 12.5575 4.12451 7.38498
299 3 12.6691 2.57022 9.48255
319 3 15.194 2.64211 9.48666
315 3 14.0293 0.233404 9.51216
295 3 11.2674 0.280322 9.42178
45 1 13.1474 2.54468 12.6937
85 2 12.4203 2.3933 11.9498
41 1 12.1428 1.43215 11.9467
12 1 11.8198 3.77422 11.7104
2 1 14.8451 1.96975 13.2305
66 2 14.3209 2.71917 13.69
6 1 14.9756 3.37547 13.4673
29 1 15.5705 4.17154 11.9492
80 2 15.5074 0.775674 12.5051
32 1 15.5405 0.792262 11.5308
115 3 15.2122 7.24267 0.961431
144 3 12.6219 7.22226 0.940919
187 3 13.9394 6.44738 3.02379
192 3 15.3294 8.84643 3.04019
168 3 12.6772 8.88281 3.07116
148 3 11.2378 6.46929 3.0513
111 3 13.9347 4.89266 0.939904
139 3 11.1407 4.92681 1.0214
211 3 15.1851 7.26369 5.18993
240 3 12.6007 7.28464 5.14688
235 3 11.2559 4.9591 5.24527
207 3 13.9047 4.87319 5.21942
287 3 15.3547 8.89416 7.32866
283 3 13.9801 6.44469 7.32198
244 3 11.2622 6.47429 7.40027
264 3 12.6494 8.91196 7.3756
307 3 15.2961 7.25686 9.42501
336 3 12.6271 7.22532 9.50016
303 3 13.9225 4.84077 9.37439
331 3 11.1769 4.93202 9.4441
37 1 12.1568 6.25496 12.0495
81 2 12.6324 7.12353 11.8127
33 1 13.4891 7.03454 11.9358
72 2 11.4192 4.73404 11.6911
7 1 11.8786 8.81499 12.0483
74 2 15.341 7.2632 11.865
18 1 15.5133 6.34765 12.264
22 1 16.0621 7.78666 12.3063
69 2 15.793 4.67438 12.7039
108 3 12.5718 12.0235 0.899371
128 3 15.3353 12.0808 0.873432
152 3 13.9248 11.2345 2.91381
156 3 15.2293 13.494 3.08488
184 3 12.6346 13.5633 3.03067
180 3 11.3006 11.0952 3.04164
104 3 11.1512 9.49505 0.977314
124 3 13.8797 9.54567 0.946147
204 3 12.6062 11.9724 5.19671
224 3 15.2529 11.9196 5.11196
200 3 11.2139 9.57635 5.19607
220 3 13.9674 9.6673 5.24968
276 3 11.2335 11.1458 7.3428
252 3 15.2757 13.4444 7.278
248 3 13.9589 11.1661 7.43027
280 3 12.5494 13.4651 7.3789
300 3 12.5296 11.9546 9.4666
320 3 15.3485 11.9256 9.42619
296 3 11.2002 9.64852 9.43254
316 3 13.9919 9.55211 9.3679
46 1 12.1739 11.1075 12.0088
42 1 13.6853 11.8478 11.8464
24 1 11.8591 13.1719 12.0922
82 2 15.4324 11.9062 12.43
86 2 12.7878 11.8035 11.7345
84 2 11.2528 9.59435 11.8525
34 1 15.9581 11.1703 12.6175
5 1 16.1475 12.5437 12.4025
116 3 15.2971 16.696 0.935605
143 3 12.7225 16.5166 0.914616
188 3 13.9161 15.8509 3.13918
167 3 12.5223 18.0925 3.03452
191 3 15.2911 18.2023 3.00986
147 3 11.3379 15.8295 2.97219
112 3 13.9559 14.3004 1.06819
140 3 11.2525 14.2992 1.00473
212 3 15.2771 16.6134 5.22501
239 3 12.5882 16.5875 5.26864
208 3 13.9065 14.3217 5.25064
236 3 11.1844 14.3526 5.24415
284 3 13.9576 15.7852 7.32291
288 3 15.2056 18.2706 7.37903
243 3 11.2695 15.8126 7.42051
263 3 12.5565 18.142 7.39454
335 3 12.6957 16.5046 9.42929
308 3 15.3323 16.5642 9.35346
304 3 14.0007 14.2608 9.41989
332 3 11.2393 14.3352 9.5456
44 1 13.6559 16.4109 12.2624
88 2 12.7339 16.3446 11.9753
48 1 12.5695 15.4171 12.2319
92 2 15.5469 16.0392 12.5541
3 1 11.6858 17.6859 11.7955
56 1 15.9202 15.86 11.6395
40 1 15.7465 17.0336 12.7751
76 2 11.4851 14.0372 11.7987
67 2 11.3937 18.6592 11.7442
