ITEM: TIMESTEP
100000000
ITEM: NUMBER OF ATOMS
336
ITEM: BOX BOUNDS pp pp pp
0.0000000000000000e+00 1.6167135238600000e+01
0.0000000000000000e+00 1.8668199539200000e+01
0.0000000000000000e+00 2.5747400283800001e+01
ITEM: ATOMS id type x y z
145 3 3.1865 1.82424 3.09969
138 3 3.24971 0.267773 1.08162
169 3 0.505514 1.81637 3.08984
97 3 0.622237 0.201777 0.977992
117 3 1.94562 2.69793 0.99073
234 3 3.24779 0.224223 5.26919
193 3 0.603453 0.224337 5.15665
213 3 1.88585 2.61897 5.2859
267 3 0.542297 1.81123 7.39804
241 3 3.29651 1.79579 7.37971
290 3 0.540269 0.274614 9.45576
309 3 1.97284 2.57886 9.42016
330 3 3.33919 0.318702 9.49142
8 1 1.0467 1.05136 11.6735
73 2 1.89504 2.46207 11.7185
85 2 0.644643 0.263562 11.7393
55 1 2.90411 2.56994 11.7425
101 3 3.32339 4.94535 0.98467
173 3 1.85458 4.07673 3.13353
129 3 0.624006 4.85795 0.927111
197 3 3.28282 4.95169 5.08658
225 3 0.499825 4.91768 5.16702
269 3 1.8605 4.23612 7.2916
293 3 3.29 4.9956 9.40905
321 3 0.480911 4.99469 9.38215
63 1 0.847566 5.75068 11.7249
92 2 0.529647 4.88141 11.5676
56 1 1.58507 3.41665 11.6156
133 3 2.0509 7.29923 1.03452
177 3 3.25221 6.46164 3.09089
157 3 0.51232 6.48709 2.98442
161 3 1.88975 8.85367 3.06568
229 3 1.87143 7.26682 5.15391
257 3 1.91064 8.77287 7.34258
273 3 3.25446 6.48653 7.42054
255 3 0.52351 6.53548 7.39856
325 3 1.9793 7.19651 9.47406
37 1 2.43739 7.22204 12.8703
13 1 1.44462 7.81906 11.6208
69 2 1.45566 7.3086 12.5148
84 2 4.00424 6.50237 13.5052
146 3 3.20049 11.1814 3.038
137 3 3.19972 9.58735 0.96582
170 3 0.579055 11.1323 3.08846
118 3 1.85287 11.9714 1.01192
98 3 0.556414 9.58159 0.930219
233 3 3.22561 9.56685 5.10516
194 3 0.509547 9.60513 5.24003
214 3 1.93723 11.8799 5.20518
242 3 3.28056 11.1516 7.33817
268 3 0.607155 11.0924 7.40456
329 3 3.39588 9.67514 9.4221
289 3 0.641986 9.42687 9.46062
310 3 1.96876 11.851 9.4421
10 1 1.79125 12.2508 13.3176
102 3 3.274 14.2206 0.863049
174 3 1.92758 13.5017 3.10873
130 3 0.57695 14.1209 0.966191
198 3 3.28677 14.198 5.21234
226 3 0.610515 14.237 5.22936
270 3 1.90533 13.419 7.3911
294 3 3.06022 14.175 9.42405
322 3 0.501606 14.2131 9.4805
24 1 1.19055 14.1419 13.4839
78 2 2.54678 12.6391 12.8971
90 2 0.519189 14.7348 12.956
62 1 0.588812 14.18 11.9941
40 1 2.64017 12.6022 11.8643
134 3 1.88575 16.5001 0.922266
178 3 3.30433 15.812 3.0362
158 3 0.50048 15.7922 3.06437
162 3 1.92946 18.0444 3.04037
230 3 1.87984 16.5692 5.20513
274 3 3.21253 15.7976 7.38522
256 3 0.578287 15.7444 7.3711
258 3 1.912 18.1539 7.47153
326 3 1.94065 16.5502 9.58419
67 2 2.02107 16.6678 11.7263
32 1 1.21071 17.9019 11.649
25 1 3.01787 16.768 11.8352
57 1 1.56862 15.7609 12.1526
186 3 5.96423 1.74773 3.15105
110 3 5.96045 0.363892 1.08736
141 3 4.73496 2.57527 0.931435
114 3 7.26783 2.65875 0.975568
206 3 6.03424 0.206998 5.18578
210 3 7.30018 2.59357 5.27598
237 3 4.57443 2.6355 5.19738
282 3 6.04692 1.78122 7.37425
302 3 6.02851 0.271496 9.46579
306 3 7.27031 2.67981 9.46397
333 3 4.65221 2.67918 9.42281
41 1 6.04392 1.30583 11.8163
27 1 7.00684 0.0756296 11.9072
89 2 6.10027 0.293572 11.7401
87 2 4.79025 3.00469 12.2875
121 3 5.94465 4.88864 0.917069
189 3 7.29951 4.2017 3.06626
165 3 4.53993 4.09923 2.98701
217 3 5.98422 4.82942 5.18685
286 3 7.21642 4.09302 7.35116
261 3 4.48189 4.12813 7.35891
313 3 5.87623 4.92264 9.41097
96 2 6.91705 5.71072 12.8149
48 1 5.11021 3.65415 12.896
54 1 4.95599 3.48058 11.3202
44 1 6.70941 6.05292 11.7971
125 3 7.39699 7.35191 0.948233
149 3 5.96031 6.40366 2.99227
105 3 4.60401 7.28092 0.966813
153 3 7.32551 8.74703 3.00108
181 3 4.63009 8.84775 3.05757
221 3 7.31379 7.20098 5.24476
201 3 4.55938 7.22994 5.18674
245 3 5.93594 6.54005 7.25183
277 3 4.62361 8.88838 7.2773
249 3 7.35191 8.73591 7.3638
317 3 7.20044 7.29399 9.4581
297 3 4.53362 7.31224 9.3577
95 2 5.97817 8.84033 13.2964
39 1 6.63323 6.45021 13.3456
50 1 6.00487 9.03392 12.4489
51 1 4.45504 7.39273 13.5306
58 1 4.54113 6.32152 12.7491
185 3 5.88172 11.2026 3.06599
142 3 4.56392 11.9387 0.988793
113 3 7.23173 11.9258 0.995254
109 3 5.85558 9.71913 0.99796
205 3 5.97764 9.47843 5.17822
238 3 4.59533 11.9654 5.1749
209 3 7.24113 11.9368 5.25966
281 3 5.91599 11.2221 7.3207
301 3 5.99754 9.65956 9.45238
334 3 4.61592 11.8754 9.39261
305 3 7.25513 11.9115 9.51683
35 1 4.93566 11.5877 12.1066
68 2 5.29296 11.4364 13.0082
21 1 4.67156 11.9241 13.5626
46 1 5.72198 9.73812 13.5122
122 3 5.93046 14.3072 0.861518
190 3 7.33018 13.573 3.10277
166 3 4.63489 13.5468 3.09076
218 3 5.85979 14.244 5.19521
285 3 7.19169 13.5165 7.37383
262 3 4.53799 13.5501 7.43487
314 3 5.90935 14.2051 9.532
7 1 5.88645 13.4996 12.2076
71 2 5.96346 14.4683 11.9642
49 1 6.89507 14.9538 12.1387
126 3 7.38328 16.5909 0.949682
150 3 5.89902 15.8553 3.00606
106 3 4.6028 16.6652 1.06326
154 3 7.35786 18.1216 3.13988
182 3 4.59521 18.2265 3.15175
202 3 4.66626 16.6921 5.23394
222 3 7.22392 16.5319 5.22059
246 3 5.89488 15.7988 7.34595
278 3 4.64525 18.144 7.39473
250 3 7.29894 18.0942 7.40749
318 3 7.19609 16.547 9.42181
298 3 4.56245 16.6745 9.46734
88 2 4.60799 16.6549 11.9223
31 1 5.05199 17.5656 12.0569
28 1 5.20348 15.9465 12.2326
74 2 8.06953 16.1941 12.5167
179 3 11.2716 1.76045 3.04114
103 3 11.3276 0.216867 1.00099
159 3 8.57175 1.84226 3.11289
131 3 8.59884 0.266011 0.996957
135 3 9.96556 2.6247 0.914135
199 3 11.3055 0.308777 5.27383
227 3 8.62801 0.151646 5.16842
231 3 9.95505 2.56611 5.18621
254 3 8.65903 1.83879 7.34812
275 3 11.3261 1.80348 7.43493
295 3 11.3251 0.226854 9.50412
327 3 9.92028 2.53686 9.46927
323 3 8.7538 0.199258 9.52082
70 2 10.1191 2.46447 11.9683
29 1 9.35218 1.48087 12.0576
76 2 8.69242 0.541262 11.8109
4 1 11.0856 2.66927 11.8302
139 3 11.3138 5.00345 0.932671
163 3 9.96985 4.04652 2.93273
100 3 8.66414 4.94249 0.927043
235 3 11.332 4.88006 5.05902
196 3 8.6397 4.85335 5.21372
259 3 9.97407 4.1993 7.40354
331 3 11.2597 5.04435 9.44333
291 3 8.62848 4.94605 9.43747
61 1 8.61005 5.12142 12.7636
86 2 9.57647 4.93259 12.9712
64 1 9.68047 3.36024 12.2172
42 1 10.2271 5.55641 12.4722
120 3 10 7.22861 0.931554
148 3 11.3048 6.3754 3.03539
172 3 8.6612 6.45411 3.08996
176 3 9.9672 8.8368 3.08877
216 3 9.96625 7.27864 5.19715
244 3 11.3083 6.39664 7.28787
265 3 8.54705 6.50221 7.32337
272 3 10.0084 8.85143 7.37469
312 3 9.85238 7.15606 9.43379
33 1 8.62122 7.93389 10.5476
23 1 11.8321 8.22646 12.2295
180 3 11.2444 11.1048 3.04631
104 3 11.3319 9.63149 0.896469
160 3 8.60073 11.1368 3.07018
132 3 8.56799 9.6415 0.908023
136 3 9.92711 11.9159 0.986258
200 3 11.3155 9.62525 5.16057
228 3 8.56542 9.58086 5.2362
232 3 9.97461 11.8736 5.21288
276 3 11.3797 11.23 7.34026
253 3 8.54078 11.0993 7.42277
296 3 11.3297 9.61071 9.54507
328 3 9.93935 11.9037 9.52002
324 3 8.67216 9.55126 9.49556
60 1 8.16848 10.0145 13.4415
72 2 11.2696 9.59261 11.839
77 2 8.83497 10.4821 12.7502
53 1 10.3646 9.90046 11.9858
6 1 8.53265 10.5613 11.7712
11 1 11.8315 10.4442 11.7983
140 3 11.3056 14.2004 0.995735
164 3 9.9727 13.439 3.06255
99 3 8.67 14.2764 0.968926
236 3 11.3685 14.2307 5.12399
195 3 8.63021 14.3035 5.22551
260 3 9.97499 13.4635 7.33893
332 3 11.323 14.2208 9.38859
292 3 8.69383 14.1953 9.38001
93 2 11.6094 13.8651 12.897
36 1 11.8571 14.8829 12.817
16 1 10.6872 13.7425 12.9648
66 2 8.96477 13.2905 12.8012
18 1 9.08308 13.2981 11.7474
34 1 8.62459 12.4856 12.8173
119 3 10.0169 16.6029 1.00873
147 3 11.3743 15.8824 2.97343
171 3 8.68919 15.7984 3.08848
175 3 10.0094 18.1759 3.04497
215 3 10.0151 16.623 5.23577
266 3 8.61924 15.7736 7.31523
243 3 11.3523 15.8048 7.39785
271 3 10.0176 18.2168 7.35863
311 3 9.94228 16.5848 9.46306
52 1 9.23649 18.43 12.3044
30 1 10.9404 17.1278 11.6388
82 2 10.8856 16.8696 12.6382
14 1 11.6035 17.1255 13.3151
19 1 9.03253 15.8127 12.9208
45 1 8.48061 16.6551 11.637
151 3 13.914 1.77737 3.06617
107 3 12.7158 2.48055 0.891336
127 3 15.4479 2.60583 1.0766
123 3 14.1387 0.180277 0.942141
219 3 14.0194 0.22753 5.22761
203 3 12.6682 2.60339 5.19635
223 3 15.3537 2.56781 5.10015
247 3 14.0748 1.80385 7.43679
299 3 12.7144 2.52858 9.49324
319 3 15.3588 2.64225 9.45239
315 3 13.9164 0.108719 9.42877
5 1 13.1862 1.94435 12.504
75 2 12.7206 2.6077 11.9468
17 1 15.239 0.257292 11.8745
111 3 14.1065 4.74153 0.883395
155 3 15.3536 4.12372 3.05828
183 3 12.677 4.10367 2.9957
207 3 14.0056 4.84729 5.09359
279 3 12.6539 4.07667 7.38402
251 3 15.4047 4.12439 7.41082
303 3 14.0332 4.9565 9.49241
2 1 15.7592 4.75001 11.737
12 1 13.5762 5.17053 12.3264
91 2 14.2036 4.59963 11.7191
43 1 13.507 3.57774 11.8315
115 3 15.4522 7.18006 0.83668
187 3 14.0244 6.38152 2.87166
144 3 12.6378 7.28819 0.924474
168 3 12.6354 8.77959 3.04292
192 3 15.3628 8.74067 3.00257
211 3 15.4409 7.23973 5.16839
240 3 12.6581 7.13857 5.13262
287 3 15.3143 8.79537 7.31471
264 3 12.6634 8.75247 7.36605
283 3 14.0205 6.54465 7.40564
307 3 15.3706 7.34079 9.37942
336 3 12.6249 7.22963 9.42228
79 2 12.3531 7.20922 12.2553
22 1 13.1737 7.38785 12.6638
38 1 15.1186 8.31657 12.1689
83 2 14.801 8.34101 13.0133
47 1 15.5153 7.83608 13.5417
152 3 13.9362 11.0729 3.11301
108 3 12.6327 11.776 0.966965
128 3 15.3275 11.8792 1.04633
124 3 13.8519 9.63266 1.03643
220 3 14.0011 9.53039 5.18229
204 3 12.5697 11.9415 5.15782
224 3 15.4151 11.8565 5.20426
248 3 13.9622 11.1325 7.31273
316 3 14.0943 9.50409 9.40147
320 3 15.4132 11.8662 9.41388
300 3 12.7068 11.8177 9.5199
81 2 12.7569 11.925 11.9356
9 1 13.7634 11.7045 12.0983
15 1 15.2816 10.5174 12.801
80 2 15.668 11.4434 12.5729
20 1 15.7799 11.3224 11.6366
112 3 14.0045 14.1987 0.926379
156 3 15.3472 13.463 3.02325
184 3 12.7156 13.4636 2.95412
208 3 14.0037 14.2128 5.25933
252 3 15.318 13.4809 7.33262
280 3 12.6782 13.4304 7.33248
304 3 13.9862 14.2259 9.45368
26 1 12.3177 12.6753 12.3333
116 3 15.3924 16.6438 0.89688
188 3 14.0193 15.7769 3.10092
143 3 12.6928 16.6351 0.919665
167 3 12.7195 18.1139 3.02534
191 3 15.3856 18.1028 2.96609
239 3 12.591 16.6822 5.20554
212 3 15.3888 16.526 5.18059
284 3 13.9829 15.7407 7.33383
288 3 15.2992 18.1225 7.34213
263 3 12.6255 18.1451 7.45817
335 3 12.5741 16.5579 9.4639
308 3 15.3259 16.4729 9.38509
1 1 14.0583 17.7106 12.1084
94 2 13.7358 16.3464 12.705
3 1 13.5188 15.9174 11.8326
59 1 14.3915 15.7963 13.0857
65 2 14.2968 18.6598 11.7016
