ITEM: TIMESTEP
100000000
ITEM: NUMBER OF ATOMS
336
ITEM: BOX BOUNDS pp pp pp
0.0000000000000000e+00 1.6167135238600000e+01
0.0000000000000000e+00 1.8668199539200000e+01
0.0000000000000000e+00 2.5747400283800001e+01
ITEM: ATOMS id type x y z
145 3 3.20232 1.7841 3.10451
138 3 3.24113 0.250342 1.06501
169 3 0.49204 1.78784 3.11515
97 3 0.621324 0.191327 1.00035
117 3 1.94235 2.69525 1.00892
234 3 3.24177 0.216523 5.25808
193 3 0.563775 0.246765 5.12839
213 3 1.87426 2.6074 5.24896
241 3 3.27697 1.8174 7.40552
267 3 0.543348 1.83216 7.39682
290 3 0.537511 0.231358 9.42189
330 3 3.3511 0.352252 9.464
309 3 1.98654 2.61726 9.42414
8 1 1.20544 1.0851 11.8496
73 2 1.98085 2.47004 11.6904
85 2 0.662158 0.249721 11.7184
55 1 2.96954 2.77693 11.8442
101 3 3.32025 4.9121 0.960345
173 3 1.87203 4.06296 3.1406
129 3 0.624434 4.8458 0.925852
197 3 3.28558 4.98563 5.11364
225 3 0.477777 4.90015 5.13615
269 3 1.86713 4.20792 7.28849
321 3 0.499169 4.99228 9.39872
293 3 3.24199 4.9651 9.40374
63 1 0.926407 5.82968 11.9054
92 2 0.55595 4.89801 11.6328
56 1 1.40466 3.25118 12.0467
133 3 2.05112 7.29536 1.04324
177 3 3.26434 6.4423 3.07698
157 3 0.51912 6.47996 2.9713
161 3 1.89961 8.8358 3.04121
229 3 1.85411 7.26259 5.14765
257 3 1.9267 8.76171 7.34832
273 3 3.24324 6.46828 7.39484
255 3 0.545027 6.51025 7.4037
325 3 1.9795 7.18195 9.44979
37 1 2.31764 7.04318 12.6431
69 2 1.39165 7.31693 12.4666
13 1 1.68061 7.89096 11.6834
84 2 3.99855 6.49838 13.4926
146 3 3.2253 11.1989 3.04479
137 3 3.14609 9.59103 0.996773
170 3 0.567131 11.1333 3.08052
118 3 1.84722 11.9653 1.02256
98 3 0.555545 9.58514 0.913717
233 3 3.22424 9.5209 5.12296
194 3 0.531052 9.59023 5.22738
214 3 1.94527 11.8768 5.1641
242 3 3.25509 11.1411 7.35431
268 3 0.591459 11.1065 7.40309
329 3 3.38896 9.67136 9.4507
289 3 0.643947 9.43403 9.49638
310 3 2.00017 11.8459 9.42456
10 1 1.53789 12.1842 13.2766
102 3 3.27258 14.2214 0.863044
174 3 1.93787 13.5219 3.10016
130 3 0.577405 14.1248 0.950378
198 3 3.2907 14.198 5.19493
226 3 0.611148 14.1987 5.2194
270 3 1.87609 13.4001 7.38171
322 3 0.502965 14.1956 9.43199
294 3 3.06796 14.1609 9.40985
24 1 1.29065 14.1391 13.3782
78 2 2.57992 12.6322 12.8446
90 2 0.644562 14.7976 12.9126
62 1 0.484621 14.2083 12.0877
40 1 2.63516 12.5911 11.8992
134 3 1.90074 16.5196 0.876044
178 3 3.30095 15.8242 3.03791
158 3 0.503624 15.8034 3.09078
162 3 1.93492 18.0801 3.01373
230 3 1.86126 16.6113 5.19058
256 3 0.614567 15.7407 7.37791
274 3 3.15866 15.8107 7.36279
258 3 1.93993 18.121 7.44272
326 3 1.94253 16.5368 9.60119
67 2 2.06442 16.6975 11.6746
25 1 3.0327 16.9115 11.777
32 1 1.24778 18.1958 11.6613
57 1 1.45637 16.0196 12.2611
186 3 5.96758 1.73757 3.16572
110 3 5.97466 0.341726 1.07581
114 3 7.3005 2.67161 0.968946
141 3 4.73387 2.58768 0.944164
206 3 6.03648 0.216 5.16567
210 3 7.28747 2.60529 5.27114
237 3 4.596 2.64952 5.211
282 3 6.06328 1.76241 7.40733
302 3 6.03539 0.244136 9.49383
306 3 7.24682 2.66871 9.46699
333 3 4.66817 2.69713 9.43197
41 1 6.0438 1.25999 11.9238
89 2 6.1092 0.312559 11.7396
27 1 7.16371 0.139858 11.7782
87 2 4.7916 3.00105 12.2362
121 3 5.92948 4.94388 0.918581
189 3 7.29684 4.21767 3.03966
165 3 4.56291 4.11498 3.00121
217 3 5.96246 4.83266 5.17422
286 3 7.20799 4.08088 7.32995
261 3 4.47681 4.11601 7.33803
313 3 5.87884 4.94211 9.38143
96 2 6.82136 5.67822 12.7875
48 1 5.07604 3.77249 12.9447
44 1 6.59652 5.89802 11.852
54 1 4.89015 3.39525 11.3907
58 1 4.63343 6.20365 12.5744
125 3 7.38393 7.36238 0.958832
149 3 5.95433 6.41428 3.01675
105 3 4.60679 7.27956 1.01232
153 3 7.31374 8.7175 2.9798
181 3 4.63986 8.79793 3.01345
221 3 7.25238 7.21673 5.19872
201 3 4.56765 7.24979 5.20059
245 3 5.94612 6.4929 7.26017
277 3 4.61119 8.87617 7.29688
249 3 7.31442 8.7207 7.3707
317 3 7.19212 7.29001 9.46852
297 3 4.57593 7.31242 9.33157
39 1 6.53959 6.57036 13.2264
95 2 5.95824 8.90484 13.3753
50 1 6.19188 8.85815 12.2872
51 1 4.36269 7.48093 13.7904
185 3 5.88685 11.1828 3.04246
113 3 7.23797 11.9113 0.961359
142 3 4.54485 11.959 0.98532
109 3 5.85081 9.73652 1.00341
205 3 5.98272 9.48868 5.1757
238 3 4.61489 11.9308 5.16773
209 3 7.23325 11.9411 5.24912
281 3 5.88699 11.2066 7.31772
301 3 5.97749 9.66768 9.44687
334 3 4.61641 11.9162 9.37183
305 3 7.27084 11.9044 9.49884
68 2 5.27784 11.464 13.1102
35 1 4.92346 11.5505 12.2891
21 1 4.50699 11.815 13.711
46 1 5.83455 9.87263 13.3417
122 3 5.92806 14.3225 0.849409
190 3 7.3255 13.5577 3.0965
166 3 4.62299 13.5564 3.09741
218 3 5.83096 14.2614 5.15212
285 3 7.219 13.5683 7.36582
262 3 4.55658 13.494 7.41854
314 3 5.92715 14.2344 9.49954
71 2 5.94373 14.4946 11.9913
49 1 6.89267 14.7961 12.3443
7 1 5.66887 13.5554 12.2707
126 3 7.36616 16.5912 0.962488
150 3 5.88391 15.8766 3.01611
106 3 4.61594 16.6881 1.00883
154 3 7.33822 18.1278 3.125
182 3 4.59943 18.2254 3.15681
222 3 7.2035 16.5017 5.23852
202 3 4.60159 16.6937 5.24101
246 3 5.89488 15.7945 7.30488
278 3 4.63233 18.1598 7.38418
250 3 7.27327 18.0856 7.41075
318 3 7.21867 16.5466 9.40035
298 3 4.58055 16.6542 9.47888
31 1 5.02975 17.5093 12.0405
88 2 4.66931 16.6331 11.9247
74 2 8.00731 16.2018 12.5833
28 1 5.2227 15.9345 12.3116
179 3 11.2977 1.76864 3.02938
103 3 11.3523 0.228014 0.979661
159 3 8.54681 1.85074 3.06042
131 3 8.62366 0.259671 0.984139
135 3 9.9732 2.60058 0.945806
231 3 9.95994 2.57792 5.17698
199 3 11.2879 0.306936 5.26209
227 3 8.62411 0.143876 5.19057
254 3 8.64797 1.84683 7.33831
275 3 11.3248 1.8025 7.44872
323 3 8.74589 0.21081 9.54652
327 3 9.93119 2.51423 9.49539
295 3 11.3107 0.255639 9.46106
76 2 8.70662 0.497633 11.8317
29 1 9.19062 1.37445 11.8777
70 2 10.0945 2.51278 11.9069
4 1 11.1419 2.64443 11.9329
139 3 11.3356 5.00006 0.925274
163 3 9.96419 3.98512 2.95238
100 3 8.68627 4.93515 0.938401
235 3 11.3232 4.86071 5.06288
196 3 8.63788 4.8881 5.20564
259 3 9.94478 4.21482 7.37443
331 3 11.2667 5.01938 9.44683
291 3 8.59019 4.95067 9.44345
64 1 9.59058 3.43551 12.4546
86 2 9.6103 4.96766 12.9487
61 1 8.64212 5.18876 13.0054
42 1 10.0527 5.55067 12.2495
120 3 10.0008 7.2722 0.907498
148 3 11.3124 6.38685 3.04506
172 3 8.63929 6.46125 3.07986
176 3 9.95106 8.81951 3.08724
216 3 9.96932 7.30745 5.18932
265 3 8.53455 6.47279 7.30545
244 3 11.324 6.39801 7.29505
272 3 9.99755 8.8634 7.37839
312 3 9.87734 7.14584 9.43245
33 1 8.56224 7.95047 10.4687
23 1 11.8044 8.12995 12.1223
180 3 11.2496 11.0981 3.03662
104 3 11.319 9.63908 0.922474
160 3 8.59145 11.1108 3.07016
132 3 8.57146 9.61525 0.916318
136 3 9.91959 11.9254 0.980558
200 3 11.3359 9.59109 5.17082
228 3 8.57184 9.56364 5.2201
232 3 9.97746 11.8773 5.22015
253 3 8.54562 11.1341 7.40197
276 3 11.3584 11.2235 7.36514
324 3 8.65929 9.55848 9.50318
296 3 11.3288 9.591 9.55142
328 3 9.95167 11.9353 9.51612
72 2 11.3748 9.55472 11.8059
77 2 8.79953 10.4198 12.7161
53 1 10.3433 9.97679 12.1571
11 1 11.9373 10.3688 12.1645
34 1 9.11229 12.362 13.1675
6 1 8.37855 10.4149 11.8758
60 1 8.29808 9.77993 13.3092
140 3 11.3258 14.2032 1.00358
164 3 9.95707 13.4505 3.05457
99 3 8.6383 14.3007 1.00584
236 3 11.3613 14.2445 5.10969
195 3 8.61708 14.2809 5.20958
260 3 9.99138 13.4404 7.33117
332 3 11.3326 14.2057 9.42258
292 3 8.68767 14.2312 9.38309
93 2 11.5329 13.952 12.8561
36 1 11.4689 14.9243 12.5278
16 1 10.7214 13.5209 12.9957
66 2 8.93382 13.2668 12.8629
18 1 8.84224 13.1401 11.8858
119 3 10.0404 16.6137 1.01085
147 3 11.3851 15.8868 2.95627
171 3 8.6823 15.8004 3.07913
175 3 10.0131 18.1769 3.03194
215 3 9.99606 16.6071 5.22283
266 3 8.64662 15.8004 7.33164
243 3 11.3319 15.8121 7.3771
271 3 10.0044 18.1899 7.36696
311 3 9.92199 16.6047 9.4834
52 1 9.27315 18.437 12.2339
82 2 10.7954 16.8799 12.7068
30 1 11.023 17.277 11.7591
14 1 11.676 17.1321 13.2737
19 1 8.95476 15.9775 12.8601
45 1 8.30878 16.5341 11.7241
151 3 13.9101 1.8041 3.04962
107 3 12.7594 2.48008 0.892626
127 3 15.4173 2.59783 1.07074
123 3 14.1282 0.206746 0.917419
219 3 13.9908 0.225078 5.24772
203 3 12.6521 2.61551 5.20752
223 3 15.3911 2.53974 5.1288
247 3 14.0625 1.75975 7.4132
299 3 12.6899 2.53901 9.47194
319 3 15.3491 2.64861 9.42527
315 3 13.9062 0.0749657 9.40819
5 1 13.2076 1.7095 12.1353
75 2 12.6709 2.67796 11.9284
65 2 14.2049 0.0343037 11.6776
17 1 15.1984 0.221308 11.9897
111 3 14.0995 4.777 0.885715
155 3 15.3782 4.13909 3.08248
183 3 12.6615 4.07063 2.99098
207 3 14.0332 4.8395 5.11398
251 3 15.412 4.14849 7.41786
279 3 12.6515 4.09346 7.38353
303 3 14.0047 4.94511 9.48389
91 2 14.1081 4.56487 11.7004
12 1 13.8881 5.27913 12.2452
2 1 15.707 4.69858 12.0466
43 1 13.5609 3.56403 12.0647
115 3 15.4336 7.17574 0.819729
187 3 14.0539 6.39943 2.85652
144 3 12.6275 7.28561 0.939612
192 3 15.3381 8.74053 3.00624
168 3 12.6497 8.75682 3.03995
211 3 15.4506 7.27618 5.14616
240 3 12.6408 7.15696 5.14679
287 3 15.3537 8.7975 7.33072
264 3 12.667 8.77369 7.39564
283 3 13.9951 6.52324 7.41722
336 3 12.6075 7.21838 9.42102
307 3 15.3443 7.31549 9.40459
22 1 13.3226 7.63768 12.6113
79 2 12.3585 7.19757 12.2023
38 1 15.1171 8.19858 12.0164
83 2 14.7738 8.28718 12.993
47 1 15.539 8.12194 13.5595
152 3 13.9567 11.0445 3.11679
124 3 13.862 9.64349 1.0352
108 3 12.6293 11.7846 0.955292
128 3 15.3139 11.8859 1.08867
220 3 13.9832 9.51979 5.19426
224 3 15.4195 11.8581 5.16975
204 3 12.5656 11.9362 5.17947
248 3 13.9651 11.0883 7.30436
316 3 14.1224 9.48921 9.4008
320 3 15.3998 11.8575 9.38721
300 3 12.6856 11.8144 9.52837
81 2 12.7627 11.9081 12.0188
9 1 13.8999 11.9759 12.034
15 1 15.4694 10.6498 12.9835
80 2 15.6733 11.4126 12.5321
20 1 15.8968 11.2347 11.5388
112 3 13.9759 14.1864 0.894066
156 3 15.3243 13.4415 3.01111
184 3 12.6986 13.4422 2.995
208 3 14.0054 14.26 5.23699
252 3 15.327 13.4737 7.3277
280 3 12.6833 13.4437 7.3291
304 3 14.0153 14.2425 9.43341
26 1 12.451 12.7905 12.1621
116 3 15.4041 16.6689 0.915437
188 3 14.0355 15.7862 3.09325
143 3 12.7295 16.675 0.876107
167 3 12.7044 18.0731 3.00387
191 3 15.3905 18.0833 2.96824
212 3 15.382 16.5375 5.17342
239 3 12.6086 16.6793 5.19568
288 3 15.337 18.1299 7.32607
284 3 13.9903 15.7677 7.35509
263 3 12.6111 18.1434 7.45769
335 3 12.5841 16.5364 9.48854
308 3 15.3249 16.4915 9.38477
1 1 14.0495 17.7557 11.9257
3 1 13.3094 15.7506 11.6818
94 2 13.714 16.3313 12.6987
59 1 14.6612 16.071 12.8185
