ITEM: TIMESTEP
100000000
ITEM: NUMBER OF ATOMS
336
ITEM: BOX BOUNDS pp pp pp
0.0000000000000000e+00 1.6167135238600000e+01
0.0000000000000000e+00 1.8668199539200000e+01
0.0000000000000000e+00 2.5747400283800001e+01
ITEM: ATOMS id type x y z
145 3 3.20041 1.79178 3.11139
138 3 3.2513 0.235294 1.0721
169 3 0.506566 1.79826 3.09608
117 3 1.94746 2.69805 1.00936
97 3 0.619862 0.198828 1.00608
234 3 3.22753 0.206949 5.25528
193 3 0.580593 0.255121 5.13459
213 3 1.86695 2.59871 5.26012
241 3 3.29041 1.80336 7.4064
267 3 0.541887 1.83149 7.40362
290 3 0.546119 0.231571 9.41969
330 3 3.34356 0.348808 9.47029
309 3 1.9785 2.60801 9.42541
8 1 1.26775 1.0798 11.8187
73 2 1.95324 2.48026 11.6868
85 2 0.60897 0.244094 11.6981
55 1 2.89276 2.67197 11.922
101 3 3.3243 4.91338 0.952788
173 3 1.86537 4.0692 3.15788
129 3 0.627436 4.85592 0.926188
197 3 3.27276 4.99312 5.11214
225 3 0.477033 4.90136 5.1432
269 3 1.85313 4.22873 7.28625
293 3 3.23767 4.97863 9.41796
321 3 0.512116 4.99845 9.41294
92 2 0.565763 4.86563 11.6551
56 1 1.3812 3.36233 12.1002
63 1 0.732848 5.84841 11.993
133 3 2.0425 7.30417 1.04202
177 3 3.28241 6.44691 3.0719
157 3 0.521391 6.50068 2.97651
161 3 1.88764 8.83623 3.04228
229 3 1.85252 7.2455 5.12718
257 3 1.92235 8.76506 7.33692
273 3 3.24726 6.45659 7.38966
255 3 0.554297 6.51529 7.40134
325 3 1.99506 7.17295 9.46202
37 1 2.27702 6.94501 12.6528
69 2 1.42668 7.34224 12.4713
13 1 1.59884 7.89344 11.5588
84 2 4.01388 6.48791 13.542
146 3 3.22382 11.208 3.0421
137 3 3.14888 9.57091 1.00509
170 3 0.565465 11.1387 3.08406
118 3 1.84535 11.9605 1.01795
98 3 0.551953 9.58704 0.905026
233 3 3.21971 9.51838 5.11166
194 3 0.520754 9.5912 5.23735
214 3 1.95419 11.8799 5.16825
242 3 3.25967 11.1552 7.3767
268 3 0.612477 11.1049 7.39729
329 3 3.40642 9.67566 9.44418
289 3 0.648471 9.42769 9.48915
310 3 1.98379 11.853 9.43116
10 1 1.65585 12.2522 13.3432
102 3 3.28595 14.2456 0.863326
174 3 1.94185 13.5323 3.09584
130 3 0.553999 14.1523 0.955743
198 3 3.29914 14.1974 5.19505
226 3 0.601917 14.2156 5.22131
270 3 1.88745 13.4005 7.38102
322 3 0.485889 14.1874 9.41819
294 3 3.07245 14.154 9.41602
24 1 1.34955 14.1934 13.2825
78 2 2.58787 12.6184 12.8572
90 2 0.636869 14.7888 12.919
62 1 0.371806 14.213 12.0416
40 1 2.59222 12.5599 11.8902
134 3 1.89847 16.5261 0.880848
178 3 3.32187 15.8171 3.03033
158 3 0.493477 15.8047 3.10052
162 3 1.9308 18.0798 3.02418
230 3 1.87136 16.6066 5.18302
274 3 3.16596 15.8159 7.35165
256 3 0.610128 15.732 7.36843
258 3 1.93784 18.1096 7.45267
326 3 1.92325 16.5371 9.61177
32 1 1.19235 18.2257 11.9182
67 2 2.04848 16.6633 11.72
25 1 3.04073 16.7551 11.7009
57 1 1.49266 16.0865 12.2482
186 3 5.96328 1.7328 3.17185
110 3 5.97108 0.354281 1.07115
114 3 7.28923 2.66084 0.970206
141 3 4.72106 2.58148 0.936845
206 3 6.04129 0.214857 5.17477
210 3 7.29361 2.60469 5.27894
237 3 4.6053 2.64151 5.21545
282 3 6.06571 1.75896 7.39527
302 3 6.02734 0.23764 9.49044
306 3 7.25334 2.65888 9.46377
333 3 4.66212 2.69956 9.42112
41 1 6.20579 1.32706 11.8741
89 2 6.12038 0.314242 11.7313
27 1 7.17041 0.191613 11.9122
87 2 4.83134 3.00139 12.2666
121 3 5.92257 4.9312 0.925534
189 3 7.28823 4.20818 3.05234
165 3 4.57034 4.13304 2.99657
217 3 5.96119 4.83728 5.17871
286 3 7.22821 4.08235 7.32396
261 3 4.4647 4.11238 7.32975
313 3 5.85521 4.9287 9.38114
96 2 6.82265 5.71363 12.8279
48 1 5.06071 3.63267 13.0275
44 1 6.74622 5.88868 11.9011
54 1 4.77442 3.40911 11.3513
58 1 4.56832 6.14761 12.624
125 3 7.40376 7.3598 0.972597
149 3 5.955 6.40654 3.02175
105 3 4.59908 7.27791 0.998781
153 3 7.31463 8.71751 2.9871
181 3 4.62378 8.82995 3.02023
221 3 7.26824 7.21353 5.19697
201 3 4.58904 7.25061 5.20477
245 3 5.94562 6.50274 7.24663
277 3 4.61176 8.88977 7.2927
249 3 7.321 8.72321 7.35863
317 3 7.18849 7.30487 9.47114
297 3 4.56978 7.31316 9.32897
95 2 5.95143 8.91346 13.3267
50 1 6.02415 8.84769 12.335
39 1 6.63293 6.45783 13.4089
51 1 4.11799 7.27336 13.8599
185 3 5.89469 11.1908 3.03085
109 3 5.85237 9.72741 0.999113
142 3 4.54523 11.9552 0.992652
113 3 7.25208 11.9113 0.968285
205 3 5.983 9.46873 5.1713
238 3 4.60904 11.9373 5.16693
209 3 7.23204 11.9376 5.25459
281 3 5.89041 11.2054 7.3161
301 3 5.97953 9.64419 9.44258
334 3 4.60971 11.9116 9.37083
305 3 7.26135 11.9041 9.49517
35 1 4.75145 11.5312 12.18
68 2 5.27416 11.4864 13.1195
21 1 4.61936 11.9418 13.7707
46 1 5.76664 9.82391 13.5134
122 3 5.94812 14.3267 0.85035
190 3 7.33196 13.5622 3.10051
166 3 4.62582 13.5581 3.10534
218 3 5.84294 14.2615 5.15951
285 3 7.22558 13.5481 7.36112
262 3 4.55954 13.5093 7.43921
314 3 5.92909 14.2251 9.50901
7 1 5.73145 13.5994 12.4331
49 1 6.87716 14.8569 12.2381
71 2 5.92368 14.4647 11.9988
126 3 7.35854 16.5664 0.962228
150 3 5.89947 15.8834 3.01454
106 3 4.60723 16.6741 1.0106
154 3 7.35387 18.114 3.14511
182 3 4.58979 18.2278 3.14619
222 3 7.20729 16.5036 5.2258
202 3 4.6024 16.6821 5.24515
246 3 5.90299 15.8023 7.30424
278 3 4.60622 18.1552 7.38323
250 3 7.28199 18.0938 7.40716
318 3 7.21505 16.555 9.42285
298 3 4.57574 16.6556 9.48176
88 2 4.66996 16.6719 11.96
31 1 5.25307 17.5054 11.9238
74 2 8.01472 16.1825 12.5641
28 1 5.06439 15.9258 12.1598
179 3 11.3038 1.7715 3.02965
103 3 11.3472 0.216387 0.968747
159 3 8.55071 1.84322 3.05676
131 3 8.61529 0.269003 0.964569
135 3 9.96829 2.60378 0.939116
199 3 11.2902 0.30572 5.27595
227 3 8.62085 0.150085 5.19163
231 3 9.96709 2.59127 5.16915
254 3 8.65568 1.83595 7.3439
275 3 11.3043 1.82596 7.45386
323 3 8.73947 0.220645 9.54461
327 3 9.92734 2.51938 9.47974
295 3 11.3132 0.262822 9.47414
76 2 8.67766 0.519659 11.8197
29 1 9.09921 1.38337 11.9636
70 2 10.073 2.51776 11.9027
4 1 11.1579 2.53332 11.9698
139 3 11.3324 5.00752 0.910163
163 3 9.9601 3.99952 2.94211
100 3 8.68104 4.91729 0.935681
235 3 11.3332 4.86017 5.05631
196 3 8.63149 4.88862 5.20222
259 3 9.93846 4.21577 7.37924
331 3 11.2628 5.01532 9.43318
291 3 8.60956 4.95806 9.45896
64 1 9.69829 3.44808 12.3881
61 1 8.55931 5.25652 13.0135
86 2 9.58755 4.94585 12.9188
42 1 10.0281 5.54634 12.3898
120 3 10.0152 7.26642 0.905852
148 3 11.3003 6.39121 3.05083
172 3 8.64309 6.44925 3.08691
176 3 9.95332 8.83046 3.09786
216 3 9.95927 7.30206 5.19397
244 3 11.3177 6.40606 7.27938
265 3 8.52922 6.45581 7.3156
272 3 9.99018 8.85687 7.37881
312 3 9.88523 7.1468 9.43264
33 1 8.46394 7.99396 10.5729
23 1 11.9221 8.06781 12.0477
180 3 11.2435 11.1127 3.04318
104 3 11.3118 9.62425 0.938766
160 3 8.60401 11.1163 3.05647
132 3 8.56756 9.61768 0.905459
136 3 9.91998 11.9131 0.995417
200 3 11.3314 9.59931 5.15095
228 3 8.56361 9.56311 5.22918
232 3 9.95129 11.879 5.22042
253 3 8.56084 11.1233 7.41016
276 3 11.3517 11.2069 7.36491
296 3 11.3468 9.61011 9.54483
328 3 9.94023 11.9291 9.50247
324 3 8.65109 9.5542 9.50633
6 1 8.47389 10.3441 11.8344
77 2 8.81308 10.4273 12.7106
72 2 11.3661 9.53888 11.7835
34 1 9.02346 12.3336 13.1222
53 1 10.3923 9.93854 12.2091
11 1 11.8406 10.2818 12.2116
60 1 8.10708 9.70692 13.3664
140 3 11.3214 14.2016 0.998213
164 3 9.9665 13.4498 3.05591
99 3 8.63621 14.303 0.999149
236 3 11.3661 14.2223 5.08856
195 3 8.61307 14.2772 5.19676
260 3 9.98458 13.4361 7.33317
332 3 11.3381 14.2097 9.42342
292 3 8.68243 14.2288 9.3695
93 2 11.5171 13.9796 12.8634
66 2 8.96868 13.27 12.8887
16 1 10.6468 13.572 12.9114
36 1 11.679 14.8965 12.7329
18 1 8.98006 13.2015 11.9064
119 3 10.0375 16.612 0.992476
147 3 11.3867 15.881 2.94641
171 3 8.68309 15.8051 3.09037
175 3 10.0009 18.1775 3.04307
215 3 10.0095 16.6108 5.22758
266 3 8.64278 15.798 7.33477
243 3 11.3358 15.8201 7.37625
271 3 10.0054 18.207 7.37822
311 3 9.91788 16.6098 9.46957
52 1 9.19892 18.4521 12.0994
30 1 10.9473 17.2431 11.7744
82 2 10.7708 16.9091 12.691
14 1 11.6548 17.084 13.2214
19 1 8.98318 15.8698 12.7847
45 1 8.17291 16.5696 11.7827
151 3 13.9223 1.78217 3.05696
127 3 15.4199 2.58688 1.06129
107 3 12.7738 2.47756 0.893324
123 3 14.1154 0.21287 0.923383
219 3 14.0095 0.241849 5.25033
203 3 12.65 2.62142 5.21056
223 3 15.3839 2.54462 5.13022
247 3 14.0621 1.77231 7.40239
315 3 13.9065 0.0841886 9.41789
299 3 12.6848 2.52766 9.4867
319 3 15.3539 2.63569 9.43254
5 1 13.1385 1.76925 12.1397
75 2 12.6961 2.65225 11.9043
17 1 15.1129 0.251403 11.968
65 2 14.1731 0.0117092 11.673
111 3 14.0989 4.7784 0.886542
155 3 15.376 4.13227 3.08356
183 3 12.6683 4.08855 2.97399
207 3 14.0345 4.84795 5.11352
279 3 12.6372 4.09983 7.36959
251 3 15.4173 4.14421 7.43435
303 3 14.0224 4.96084 9.48091
91 2 14.0906 4.58145 11.7376
2 1 15.7667 4.66408 12.0289
12 1 13.8491 5.26152 12.3096
43 1 13.5609 3.68313 12.0708
115 3 15.4375 7.17329 0.829861
187 3 14.0577 6.40788 2.85539
144 3 12.6283 7.30847 0.928385
192 3 15.3466 8.73566 3.00335
168 3 12.641 8.75547 3.03647
211 3 15.4635 7.27417 5.15203
240 3 12.6335 7.17236 5.14984
287 3 15.3327 8.80304 7.32251
264 3 12.6533 8.76828 7.38873
283 3 13.9797 6.51998 7.40252
336 3 12.5995 7.2047 9.43189
307 3 15.3505 7.32898 9.38876
79 2 12.3756 7.22351 12.2081
22 1 13.2468 7.62308 12.6249
38 1 15.0701 8.1586 11.9755
83 2 14.7864 8.28601 12.9861
47 1 15.5396 8.14518 13.5334
152 3 13.9499 11.066 3.12232
108 3 12.6352 11.794 0.96123
128 3 15.3226 11.8704 1.07605
124 3 13.8471 9.64257 1.03853
220 3 13.9699 9.50768 5.19267
224 3 15.4196 11.8629 5.1581
204 3 12.5629 11.9418 5.17747
248 3 13.9706 11.0755 7.31722
316 3 14.1075 9.49991 9.40462
300 3 12.6843 11.8088 9.51237
320 3 15.4032 11.8388 9.38198
81 2 12.7888 11.9243 11.9887
9 1 13.8018 11.9784 12.0017
80 2 15.666 11.4102 12.5751
15 1 15.2747 10.6598 12.8913
20 1 15.9179 11.1777 11.4905
112 3 13.9745 14.175 0.893073
156 3 15.3224 13.449 3.01743
184 3 12.7049 13.443 2.98975
208 3 14.0045 14.2714 5.23669
252 3 15.3235 13.4646 7.33435
280 3 12.6787 13.4474 7.33031
304 3 14.0388 14.2476 9.42859
26 1 12.4762 12.7088 12.4084
116 3 15.4074 16.671 0.903607
188 3 14.0255 15.7808 3.08514
143 3 12.7298 16.6654 0.877935
167 3 12.7191 18.0731 3.00201
191 3 15.3809 18.0836 2.96823
212 3 15.3788 16.5429 5.19254
239 3 12.6147 16.6854 5.17993
288 3 15.3294 18.1256 7.33643
284 3 13.9938 15.7472 7.35616
263 3 12.6116 18.1616 7.46731
335 3 12.599 16.5492 9.48924
308 3 15.3308 16.4814 9.37792
1 1 14.0107 17.6082 11.885
94 2 13.7493 16.3358 12.7173
3 1 13.4481 15.6547 12.0079
59 1 14.6815 15.9866 12.8745
