ITEM: TIMESTEP
100000000
ITEM: NUMBER OF ATOMS
336
ITEM: BOX BOUNDS pp pp pp
0.0000000000000000e+00 1.6167135238600000e+01
0.0000000000000000e+00 1.8668199539200000e+01
0.0000000000000000e+00 2.5747400283800001e+01
ITEM: ATOMS id type x y z
145 3 3.17021 1.80298 3.10408
138 3 3.26359 0.263252 1.08136
169 3 0.502835 1.81102 3.10689
97 3 0.610639 0.200795 0.978963
117 3 1.93451 2.69611 1.00415
234 3 3.24742 0.221448 5.27117
193 3 0.615709 0.220114 5.14185
213 3 1.89194 2.60882 5.2688
267 3 0.544506 1.81513 7.3938
241 3 3.29854 1.81423 7.39143
290 3 0.532232 0.267363 9.4607
309 3 1.97262 2.58989 9.41986
330 3 3.3538 0.327705 9.48868
8 1 1.21258 0.990237 11.5508
73 2 1.96468 2.47404 11.7098
85 2 0.616294 0.273621 11.7278
55 1 2.98065 2.47701 11.8349
101 3 3.30817 4.92774 0.986244
173 3 1.84721 4.08318 3.14784
129 3 0.627602 4.86564 0.910472
197 3 3.2801 4.94862 5.07206
225 3 0.503104 4.92352 5.15454
269 3 1.85819 4.22466 7.29048
293 3 3.27723 4.98718 9.4137
321 3 0.492707 5.001 9.40013
92 2 0.530736 4.85495 11.5429
63 1 0.87128 5.71776 11.8109
56 1 1.52036 3.38918 11.7515
133 3 2.0519 7.31568 1.03597
177 3 3.26755 6.46428 3.10039
157 3 0.512993 6.46269 2.96886
161 3 1.88658 8.85794 3.06645
229 3 1.87503 7.28044 5.16224
257 3 1.91501 8.77747 7.3337
273 3 3.25133 6.48816 7.42181
255 3 0.511915 6.55167 7.39557
325 3 1.98893 7.18168 9.48302
37 1 2.35189 7.09445 12.859
13 1 1.66034 7.66793 11.6633
69 2 1.42913 7.32468 12.5175
84 2 4.01555 6.48249 13.5242
146 3 3.21978 11.1685 3.06007
137 3 3.19707 9.58047 0.969741
170 3 0.582792 11.1312 3.07102
118 3 1.86398 11.9661 0.999149
98 3 0.54835 9.56721 0.932029
233 3 3.23184 9.56456 5.09305
194 3 0.507795 9.61423 5.24184
214 3 1.9261 11.876 5.18599
242 3 3.27297 11.1545 7.33396
268 3 0.60375 11.0902 7.41698
329 3 3.4005 9.66903 9.4289
310 3 1.97808 11.8654 9.44491
289 3 0.639597 9.42903 9.46264
10 1 1.59887 12.1703 13.1853
102 3 3.2751 14.2093 0.861767
174 3 1.92805 13.5157 3.12004
130 3 0.574429 14.1032 0.961202
198 3 3.2801 14.1858 5.19639
226 3 0.617587 14.237 5.24635
270 3 1.89147 13.4266 7.40157
294 3 3.06254 14.1863 9.42234
322 3 0.506038 14.2011 9.4761
24 1 0.952216 14.0036 13.5724
78 2 2.49959 12.6763 12.9387
90 2 0.530366 14.7552 12.9826
40 1 2.44812 12.4791 11.803
62 1 0.599276 14.3143 11.9872
134 3 1.88036 16.4963 0.917512
178 3 3.32074 15.8102 3.03113
158 3 0.49959 15.8032 3.0591
162 3 1.91706 18.0388 3.02887
230 3 1.8854 16.58 5.21671
274 3 3.21532 15.8003 7.38732
256 3 0.591481 15.7295 7.36972
258 3 1.91483 18.1678 7.46541
326 3 1.95715 16.54 9.56987
67 2 2.03658 16.6953 11.7381
25 1 2.91668 16.6372 11.8458
32 1 1.15117 17.985 11.5803
57 1 1.63008 15.7806 12.146
186 3 5.95531 1.7417 3.16937
141 3 4.73848 2.56091 0.953433
114 3 7.26977 2.64515 0.964072
110 3 5.96389 0.335788 1.06478
206 3 6.04001 0.20622 5.18687
210 3 7.30748 2.58045 5.2833
237 3 4.57351 2.62572 5.19092
282 3 6.05794 1.7855 7.35649
302 3 6.03099 0.268808 9.45329
306 3 7.27049 2.67307 9.46706
333 3 4.64825 2.6748 9.42896
41 1 6.03448 1.26076 11.7825
89 2 6.10621 0.295644 11.7399
27 1 7.02473 0.145838 11.8591
87 2 4.83295 2.98839 12.2581
121 3 5.92442 4.89289 0.923381
189 3 7.29235 4.20957 3.0536
165 3 4.54325 4.09944 2.99053
217 3 5.97334 4.85529 5.17638
261 3 4.47954 4.13674 7.35533
286 3 7.2191 4.08521 7.36604
313 3 5.8774 4.91542 9.40953
96 2 6.89892 5.67513 12.781
48 1 4.96154 3.69478 12.9233
54 1 4.98077 3.41634 11.2268
44 1 6.67593 5.95201 11.7605
125 3 7.40624 7.35851 0.942156
149 3 5.96974 6.40117 3.00392
105 3 4.60637 7.28979 0.984085
181 3 4.62244 8.85461 3.05112
153 3 7.33444 8.72941 2.99826
221 3 7.30984 7.20626 5.23191
201 3 4.56181 7.21562 5.19516
245 3 5.94371 6.53668 7.25192
277 3 4.63072 8.88189 7.28675
249 3 7.34985 8.72973 7.38223
317 3 7.20931 7.29222 9.4604
297 3 4.54101 7.30842 9.33083
39 1 6.45098 6.39612 13.3757
95 2 5.98006 8.87928 13.3516
50 1 5.95144 9.05242 12.4007
51 1 4.52612 7.3002 13.6876
58 1 4.53677 6.26616 12.6274
185 3 5.87408 11.1961 3.06415
142 3 4.54618 11.9333 0.994964
113 3 7.23458 11.9228 0.997687
109 3 5.85585 9.72776 0.987609
205 3 5.98756 9.48936 5.1835
238 3 4.59304 11.9634 5.16336
209 3 7.25223 11.9377 5.23641
281 3 5.91536 11.2186 7.32443
301 3 6.00724 9.66 9.46221
334 3 4.62275 11.8857 9.38146
305 3 7.25816 11.901 9.51189
68 2 5.26942 11.4555 13.0109
35 1 4.9517 11.6322 12.1196
21 1 4.5579 11.862 13.6095
46 1 5.81542 9.865 13.4803
122 3 5.92017 14.3118 0.85781
190 3 7.33784 13.575 3.1052
166 3 4.63142 13.5523 3.096
218 3 5.84777 14.2604 5.19137
285 3 7.19877 13.5299 7.388
262 3 4.54572 13.5519 7.4224
314 3 5.92411 14.2119 9.53565
71 2 5.92147 14.4646 11.9103
49 1 6.90837 14.945 12.1315
7 1 5.96105 13.4933 12.3153
126 3 7.37595 16.5897 0.954236
150 3 5.88576 15.855 3.00345
106 3 4.61332 16.6757 1.06787
154 3 7.36068 18.1266 3.13762
182 3 4.6081 18.2409 3.13726
222 3 7.22211 16.5165 5.24408
202 3 4.65718 16.6856 5.2434
246 3 5.90056 15.7849 7.34974
278 3 4.63849 18.1641 7.39668
250 3 7.29088 18.0913 7.40943
318 3 7.19982 16.5452 9.42489
298 3 4.58075 16.6607 9.46993
31 1 5.02233 17.5822 11.9662
88 2 4.59844 16.6753 11.8603
74 2 8.04917 16.1968 12.5171
28 1 5.15639 16.0218 12.243
179 3 11.2896 1.76186 3.05282
103 3 11.3469 0.207296 0.995041
159 3 8.56609 1.83368 3.10262
131 3 8.60321 0.269314 1.0021
135 3 9.97636 2.61866 0.934241
199 3 11.3086 0.316227 5.27273
227 3 8.62773 0.143205 5.17075
231 3 9.94851 2.58704 5.1887
254 3 8.6384 1.84384 7.36248
275 3 11.3242 1.8209 7.43785
295 3 11.3269 0.224919 9.49226
327 3 9.9207 2.53453 9.46944
323 3 8.73663 0.187885 9.50733
29 1 9.25006 1.42959 11.9881
70 2 10.1053 2.46268 11.9621
76 2 8.68935 0.522229 11.8174
4 1 11.0344 2.55642 11.9349
139 3 11.3219 5.00727 0.937542
163 3 9.98161 4.03511 2.93032
100 3 8.6639 4.93102 0.931331
235 3 11.3475 4.87438 5.05593
196 3 8.63723 4.8471 5.21123
259 3 9.96676 4.20788 7.39299
331 3 11.2585 5.03653 9.43292
291 3 8.63334 4.94564 9.44237
64 1 9.70237 3.47307 12.2494
86 2 9.61386 4.94865 12.9792
61 1 8.60913 5.02518 12.9154
42 1 10.012 5.52675 12.3271
120 3 10.0156 7.23647 0.937554
148 3 11.3065 6.37718 3.03751
172 3 8.67798 6.46458 3.09288
176 3 9.9595 8.83539 3.10371
216 3 9.96519 7.25909 5.20886
244 3 11.3076 6.39371 7.28417
265 3 8.54011 6.51477 7.3242
272 3 10.0092 8.84046 7.37081
312 3 9.8425 7.14938 9.4589
33 1 8.7738 8.06354 10.5168
23 1 11.7665 8.06126 12.1723
180 3 11.2387 11.108 3.04765
104 3 11.3259 9.64652 0.891626
160 3 8.57996 11.1391 3.07183
132 3 8.58086 9.63351 0.913656
136 3 9.94098 11.9179 0.990781
200 3 11.3093 9.62253 5.16462
228 3 8.56409 9.57477 5.23457
232 3 9.97271 11.8734 5.20048
276 3 11.3681 11.2259 7.34081
253 3 8.54386 11.0992 7.41189
296 3 11.3174 9.60597 9.52307
328 3 9.92883 11.9017 9.50796
324 3 8.67497 9.55185 9.49378
72 2 11.2955 9.57193 11.8488
77 2 8.83429 10.5143 12.7648
6 1 8.54699 10.6012 11.6259
53 1 10.4397 10.012 11.9627
11 1 11.844 10.4168 11.9845
34 1 8.8408 12.3432 12.8714
60 1 8.16145 10.0499 13.3272
140 3 11.3059 14.2274 0.987892
164 3 9.97864 13.457 3.06828
99 3 8.65542 14.2738 0.97844
236 3 11.3742 14.2497 5.11624
195 3 8.62883 14.301 5.21738
260 3 9.97842 13.4408 7.32181
332 3 11.3169 14.2394 9.39708
292 3 8.7096 14.2008 9.36579
93 2 11.614 13.9338 12.8962
36 1 11.7462 14.7851 12.7756
16 1 10.6707 13.8006 12.9591
66 2 9.00929 13.3022 12.8072
18 1 9.1292 13.3384 11.7427
119 3 10.0212 16.6028 1.01757
147 3 11.3771 15.8874 2.95647
171 3 8.68356 15.8064 3.07753
175 3 10.0036 18.1679 3.04143
215 3 10.0324 16.6376 5.22895
266 3 8.6217 15.7727 7.3288
243 3 11.3526 15.811 7.38909
271 3 10.0186 18.2048 7.37354
311 3 9.94593 16.5984 9.45702
14 1 11.5859 16.9533 13.3319
30 1 11.0884 17.1756 11.6678
82 2 10.8678 16.8438 12.6596
52 1 9.24678 18.4 12.2601
19 1 8.87716 15.7236 12.9743
45 1 8.4961 16.8555 11.5728
151 3 13.9088 1.778 3.06114
127 3 15.4332 2.59027 1.06781
107 3 12.725 2.49595 0.897541
123 3 14.1196 0.173898 0.930405
219 3 14.0074 0.227895 5.23567
203 3 12.6794 2.60367 5.20402
223 3 15.3652 2.57943 5.09872
247 3 14.0672 1.79138 7.42391
299 3 12.7037 2.5259 9.48514
319 3 15.3729 2.62819 9.43851
315 3 13.9178 0.106907 9.42533
75 2 12.7206 2.62515 11.9558
5 1 13.127 1.95081 12.405
65 2 14.254 0.0237677 11.7513
17 1 15.2862 0.268549 11.8063
111 3 14.0938 4.74581 0.892286
155 3 15.3696 4.13792 3.06074
183 3 12.6483 4.09767 2.98704
207 3 13.9959 4.84325 5.10633
279 3 12.6502 4.07398 7.39578
251 3 15.4104 4.11875 7.40621
303 3 14.0165 4.94021 9.47957
12 1 13.6871 5.20381 12.2293
2 1 15.8041 4.79017 11.8201
91 2 14.159 4.57967 11.6825
43 1 13.4658 3.50912 11.9125
115 3 15.4472 7.18673 0.829988
187 3 14.031 6.36438 2.8601
144 3 12.6107 7.28982 0.923879
168 3 12.6482 8.78789 3.03024
192 3 15.3622 8.7439 3.0145
211 3 15.4481 7.26249 5.14971
240 3 12.6615 7.12145 5.1358
287 3 15.3152 8.78997 7.33289
264 3 12.6586 8.74295 7.38683
283 3 14.0092 6.52583 7.39553
307 3 15.3691 7.32564 9.37486
336 3 12.6193 7.21921 9.42265
79 2 12.3705 7.19802 12.255
22 1 13.1485 7.24895 12.5979
38 1 15.0055 8.3456 12.1359
83 2 14.7608 8.35193 13.0117
47 1 15.6 7.88887 13.4055
152 3 13.9515 11.0729 3.10977
108 3 12.6385 11.7874 0.955035
128 3 15.3062 11.8739 1.0377
124 3 13.851 9.63711 1.03226
204 3 12.5645 11.935 5.15605
220 3 14.0067 9.53776 5.2003
224 3 15.4192 11.8537 5.21828
248 3 13.9475 11.1392 7.30589
316 3 14.0919 9.49701 9.40307
320 3 15.4085 11.8436 9.42123
300 3 12.6976 11.8287 9.55171
9 1 13.8163 11.745 12.0679
81 2 12.7911 11.9007 11.8909
15 1 15.2137 10.7085 12.8579
80 2 15.6567 11.4989 12.6063
20 1 15.8861 11.3626 11.6915
112 3 13.9972 14.1968 0.9077
156 3 15.3403 13.4616 3.02866
184 3 12.7156 13.4414 2.96858
208 3 14.0004 14.2137 5.25067
252 3 15.312 13.4872 7.33438
280 3 12.6973 13.3955 7.33833
304 3 13.9833 14.2358 9.44982
26 1 12.2716 12.8226 12.3401
116 3 15.414 16.6327 0.906979
188 3 14.0068 15.7973 3.09067
143 3 12.7032 16.6609 0.903475
167 3 12.704 18.1124 3.02032
191 3 15.4113 18.0905 2.95495
212 3 15.4072 16.5223 5.1784
239 3 12.5913 16.6737 5.19858
284 3 13.9787 15.7407 7.32387
288 3 15.3208 18.1083 7.3338
263 3 12.6285 18.1428 7.45953
335 3 12.57 16.5354 9.4616
308 3 15.3182 16.4846 9.37711
1 1 14.0485 17.6843 12.2117
94 2 13.6954 16.3541 12.6652
59 1 14.3245 15.8652 13.126
3 1 13.5537 15.8634 11.8208
