ITEM: TIMESTEP
100000000
ITEM: NUMBER OF ATOMS
336
ITEM: BOX BOUNDS pp pp pp
0.0000000000000000e+00 1.6167135238600000e+01
0.0000000000000000e+00 1.8668199539200000e+01
0.0000000000000000e+00 2.5747400283800001e+01
ITEM: ATOMS id type x y z
145 3 3.20193 1.82679 3.11628
138 3 3.23589 0.242475 1.07361
169 3 0.490563 1.7944 3.09607
117 3 1.9607 2.683 0.983115
97 3 0.627205 0.199254 1.00676
234 3 3.25224 0.244871 5.2688
193 3 0.623251 0.21497 5.14671
213 3 1.87825 2.5998 5.28375
267 3 0.531889 1.8245 7.40031
241 3 3.29137 1.79422 7.38195
290 3 0.541322 0.266172 9.45755
309 3 1.97016 2.58903 9.43383
330 3 3.33143 0.333519 9.48562
73 2 1.92568 2.55227 11.6928
8 1 1.24262 1.08335 11.6641
85 2 0.645971 0.25308 11.7267
55 1 2.91466 2.45422 11.8937
101 3 3.31891 4.95275 0.970033
173 3 1.8512 4.07231 3.13711
129 3 0.621817 4.85979 0.934619
197 3 3.26648 4.96345 5.08818
225 3 0.486228 4.92719 5.14928
269 3 1.85727 4.22362 7.27824
293 3 3.27738 5.00554 9.43015
321 3 0.504601 4.98882 9.39411
92 2 0.545117 4.88349 11.6119
56 1 1.69201 3.453 11.7878
63 1 0.82319 5.77234 12
133 3 2.05417 7.30467 1.04172
177 3 3.25406 6.46068 3.08736
157 3 0.505058 6.47829 2.98972
161 3 1.87615 8.85072 3.05297
229 3 1.87267 7.26555 5.14901
257 3 1.9068 8.78033 7.34996
273 3 3.253 6.46293 7.39025
255 3 0.541536 6.5295 7.4071
325 3 1.97799 7.18994 9.46897
37 1 2.35504 7.18441 12.7536
69 2 1.47379 7.29773 12.4852
13 1 1.53877 7.91671 11.7755
84 2 3.97872 6.50972 13.5132
146 3 3.20035 11.1821 3.05886
137 3 3.23552 9.58591 0.978444
170 3 0.582809 11.1492 3.09955
118 3 1.86811 11.9796 1.01633
98 3 0.553768 9.60191 0.947174
233 3 3.22834 9.54056 5.12186
194 3 0.518042 9.61324 5.24287
214 3 1.96477 11.8933 5.19491
242 3 3.27549 11.1412 7.35475
268 3 0.601497 11.1042 7.40027
329 3 3.3992 9.66309 9.42981
289 3 0.654663 9.42158 9.44272
310 3 1.98304 11.8538 9.43566
10 1 1.72813 12.2358 13.204
40 1 2.62132 12.4187 11.9056
102 3 3.27188 14.2308 0.872481
174 3 1.9387 13.4998 3.11641
130 3 0.566208 14.1011 0.956303
198 3 3.28631 14.1962 5.20213
226 3 0.615913 14.2359 5.22658
270 3 1.89067 13.4061 7.39045
294 3 3.07897 14.1674 9.40545
322 3 0.510268 14.2081 9.46266
24 1 1.2934 14.2151 13.4021
78 2 2.49653 12.6069 12.9066
90 2 0.517465 14.7792 12.9273
62 1 0.565425 14.3063 11.9624
134 3 1.88572 16.524 0.916985
178 3 3.28681 15.8314 3.04224
158 3 0.51226 15.7953 3.09393
162 3 1.91902 18.0705 3.04837
230 3 1.85831 16.5842 5.18762
256 3 0.569931 15.7546 7.38467
274 3 3.20678 15.8162 7.38037
258 3 1.92612 18.144 7.45201
326 3 1.948 16.5486 9.59331
67 2 2.01711 16.6347 11.7219
32 1 1.21688 18.021 11.6243
25 1 2.94512 16.7292 11.8253
57 1 1.54987 15.77 12.2418
186 3 5.94001 1.74003 3.15721
110 3 5.97335 0.364163 1.08483
114 3 7.28436 2.66014 0.977206
141 3 4.72668 2.56915 0.919669
206 3 6.03753 0.224827 5.1857
237 3 4.57935 2.63759 5.22723
210 3 7.29158 2.59301 5.27261
282 3 6.05409 1.761 7.3883
302 3 6.04542 0.263567 9.4837
306 3 7.26351 2.68038 9.47142
333 3 4.67317 2.70232 9.43252
41 1 6.02868 1.34883 11.7551
89 2 6.13574 0.288123 11.7005
27 1 7.0759 0.131919 11.7011
87 2 4.80532 2.9669 12.2775
121 3 5.92886 4.89067 0.901955
189 3 7.30252 4.21358 3.04781
165 3 4.55971 4.1286 2.97974
217 3 5.97195 4.8176 5.18479
286 3 7.25625 4.09934 7.32094
261 3 4.47643 4.1384 7.34977
313 3 5.87519 4.92941 9.38907
48 1 5.09321 3.67033 12.8872
96 2 6.8897 5.69881 12.825
44 1 6.54726 5.94777 11.7676
54 1 4.86641 3.62729 11.4038
125 3 7.37697 7.35377 0.977896
149 3 5.94899 6.41618 2.99694
105 3 4.59439 7.283 0.957998
181 3 4.62913 8.83869 3.04577
153 3 7.30965 8.73795 2.99698
201 3 4.57137 7.24417 5.19291
221 3 7.32037 7.1873 5.22552
277 3 4.60862 8.89156 7.2685
245 3 5.93977 6.53752 7.25096
249 3 7.33758 8.74202 7.37344
317 3 7.22149 7.29838 9.42808
297 3 4.54438 7.31365 9.34673
95 2 5.98709 8.84237 13.3041
50 1 5.98285 9.01831 12.2966
39 1 6.55139 6.47287 13.5011
51 1 4.3621 7.42539 13.6013
58 1 4.43523 6.35937 12.6443
185 3 5.88532 11.1852 3.0427
142 3 4.5384 11.9332 1.01735
113 3 7.23022 11.9167 0.989338
109 3 5.84177 9.70594 1.00148
205 3 5.994 9.45877 5.16629
238 3 4.57375 11.9842 5.17604
209 3 7.23779 11.9145 5.26284
281 3 5.91224 11.1973 7.30199
301 3 5.98938 9.65745 9.43452
305 3 7.24713 11.8985 9.50852
334 3 4.62146 11.9126 9.36733
68 2 5.28696 11.4245 13.0444
35 1 4.81607 11.5774 12.1478
46 1 5.85562 9.91214 13.5593
21 1 4.74003 11.8925 13.7023
122 3 5.9279 14.3016 0.863009
190 3 7.33027 13.5767 3.0881
166 3 4.64317 13.5424 3.10845
218 3 5.85588 14.2495 5.18003
285 3 7.19723 13.5059 7.35928
262 3 4.53594 13.5235 7.41501
314 3 5.89821 14.2084 9.52774
71 2 5.97966 14.4993 11.9655
49 1 6.91534 14.773 12.2431
7 1 5.88718 13.5695 12.3695
126 3 7.37348 16.5933 0.934542
150 3 5.88555 15.8662 3.03197
106 3 4.59862 16.6591 1.04621
154 3 7.35521 18.088 3.1312
182 3 4.61243 18.2259 3.13979
222 3 7.22088 16.521 5.23327
202 3 4.67041 16.6936 5.23308
246 3 5.91295 15.821 7.32216
278 3 4.6432 18.1676 7.41026
250 3 7.3023 18.0988 7.41396
298 3 4.54961 16.6712 9.46918
318 3 7.18746 16.5432 9.40964
88 2 4.67855 16.6248 11.9026
31 1 5.21604 17.5124 12.1886
28 1 5.26904 15.8294 12.2426
74 2 8.07098 16.1937 12.5303
179 3 11.2852 1.74631 3.03718
103 3 11.3186 0.230953 0.974635
159 3 8.59241 1.83938 3.07573
131 3 8.63493 0.260083 0.986934
135 3 9.94874 2.61966 0.904433
199 3 11.2921 0.303096 5.27576
227 3 8.62884 0.146355 5.19025
231 3 9.97504 2.55906 5.16913
254 3 8.63945 1.85608 7.34992
275 3 11.3215 1.80997 7.43989
327 3 9.94792 2.5534 9.47906
323 3 8.75733 0.221716 9.52767
295 3 11.3273 0.240307 9.48304
76 2 8.72535 0.547015 11.8797
29 1 9.25128 1.32656 12.0008
70 2 10.0973 2.45923 11.9644
4 1 11.0777 2.56809 11.9332
139 3 11.3355 5.0151 0.92212
163 3 9.96709 4.03995 2.92892
100 3 8.6707 4.94518 0.923955
235 3 11.3148 4.87793 5.08077
196 3 8.62543 4.86293 5.18124
259 3 9.95368 4.20682 7.39597
331 3 11.2802 5.02842 9.43831
291 3 8.63858 4.93227 9.44281
61 1 8.66794 5.02878 12.9571
86 2 9.54539 4.90029 12.9715
64 1 9.80552 3.40027 12.3678
42 1 10.0829 5.42394 12.2579
120 3 9.99464 7.22863 0.929726
148 3 11.3149 6.37603 3.0099
172 3 8.64587 6.45833 3.09619
176 3 9.95304 8.83112 3.10071
216 3 9.95144 7.29105 5.18872
244 3 11.3129 6.40744 7.28167
265 3 8.54434 6.49967 7.32901
272 3 9.99029 8.82772 7.4107
312 3 9.87447 7.16345 9.42217
33 1 8.5387 7.85982 10.6549
23 1 11.7169 8.26271 12.1044
180 3 11.2235 11.1188 3.04051
104 3 11.3301 9.62209 0.905538
160 3 8.6094 11.1306 3.05521
132 3 8.55737 9.64861 0.906363
136 3 9.92237 11.8745 0.991229
200 3 11.3183 9.61134 5.17503
228 3 8.55963 9.57126 5.25114
232 3 9.94677 11.8668 5.21378
276 3 11.3724 11.2205 7.35582
253 3 8.54885 11.0839 7.44356
324 3 8.66903 9.54956 9.51054
296 3 11.3253 9.59407 9.54915
328 3 9.91696 11.9098 9.51449
77 2 8.78998 10.5192 12.7343
6 1 8.30364 10.4944 11.8509
72 2 11.3052 9.58463 11.8209
53 1 10.5205 9.96959 12.2389
34 1 8.77159 12.3807 13.0251
11 1 11.9099 10.3731 11.7731
60 1 8.10617 10.0256 13.344
140 3 11.3035 14.2029 1.00052
164 3 9.97 13.4432 3.05422
99 3 8.65601 14.2816 0.969917
236 3 11.3706 14.2295 5.13065
195 3 8.64651 14.3029 5.22352
260 3 9.97487 13.4569 7.33422
332 3 11.3278 14.2127 9.39134
292 3 8.68608 14.2091 9.35062
93 2 11.5779 13.923 12.8793
66 2 8.98765 13.2912 12.8118
16 1 10.4376 13.4258 12.8518
36 1 11.8775 14.9639 12.8002
18 1 8.89335 13.3373 11.6522
119 3 10.0313 16.6171 1.02755
147 3 11.3838 15.9007 2.95797
171 3 8.69269 15.7991 3.1053
175 3 10.0038 18.179 3.05249
215 3 9.99787 16.6166 5.24948
266 3 8.60814 15.7854 7.31555
243 3 11.3468 15.8134 7.39505
271 3 9.99399 18.2128 7.36849
311 3 9.94118 16.6026 9.47311
52 1 9.13062 18.4074 12.3737
30 1 10.811 17.4095 11.8938
82 2 10.8385 16.8727 12.677
14 1 11.5433 17.2063 13.3189
19 1 8.83997 15.8682 12.8094
45 1 8.38498 16.5856 11.6886
151 3 13.9106 1.77926 3.06696
107 3 12.7319 2.47951 0.871864
127 3 15.425 2.60812 1.0935
123 3 14.1334 0.189191 0.941239
219 3 13.999 0.229241 5.23489
203 3 12.6635 2.60722 5.21075
223 3 15.3563 2.55315 5.10124
247 3 14.0653 1.79254 7.4187
299 3 12.7203 2.52256 9.5099
319 3 15.3484 2.63811 9.46383
315 3 13.9178 0.117027 9.4441
5 1 13.2101 1.76765 12.3155
75 2 12.6275 2.62858 11.9245
65 2 14.2567 0.00687228 11.7126
17 1 15.1242 0.299165 11.906
111 3 14.1119 4.75634 0.876572
155 3 15.3605 4.11013 3.05261
183 3 12.6648 4.09902 3.00248
207 3 13.9967 4.85113 5.10327
279 3 12.6476 4.08246 7.38661
251 3 15.4083 4.13822 7.41542
303 3 14.0134 4.94542 9.47904
91 2 14.1499 4.65571 11.7089
2 1 15.684 4.7021 11.7515
12 1 13.6478 5.32981 12.1868
43 1 13.3467 3.53487 11.7579
115 3 15.4264 7.18963 0.846562
187 3 14.0257 6.37994 2.85698
144 3 12.6362 7.28293 0.927923
192 3 15.3659 8.7374 2.99425
168 3 12.6393 8.77386 3.04984
211 3 15.441 7.27797 5.14421
240 3 12.6566 7.14576 5.14822
287 3 15.3615 8.78757 7.3115
264 3 12.6484 8.77013 7.3747
283 3 13.9968 6.53905 7.42193
336 3 12.6329 7.23178 9.40756
307 3 15.3478 7.33972 9.36973
22 1 13.2513 7.53064 12.5727
79 2 12.3491 7.21619 12.2694
83 2 14.7411 8.33268 12.9762
38 1 15.2177 8.22143 12.0498
47 1 15.5199 8.00281 13.5631
152 3 13.9346 11.078 3.11459
108 3 12.6407 11.7806 0.965156
128 3 15.3187 11.871 1.04605
124 3 13.8577 9.60979 1.02441
220 3 13.9769 9.52141 5.19697
204 3 12.5606 11.9281 5.16744
224 3 15.4222 11.8514 5.20488
248 3 13.947 11.1072 7.30518
316 3 14.0974 9.49434 9.39505
320 3 15.3885 11.8607 9.39299
300 3 12.7183 11.8141 9.51837
81 2 12.785 11.9423 11.949
9 1 13.8634 11.855 12.0051
15 1 15.4308 10.5914 12.9522
80 2 15.6904 11.4244 12.5906
20 1 15.9804 11.1835 11.5202
112 3 13.9882 14.1971 0.914002
156 3 15.3409 13.4488 3.02423
184 3 12.7136 13.4735 2.97548
208 3 13.9801 14.2512 5.25457
252 3 15.309 13.4747 7.33308
280 3 12.6874 13.4429 7.31364
304 3 14.006 14.239 9.44998
26 1 12.224 12.7345 12.3908
116 3 15.3981 16.6477 0.898516
188 3 14.0154 15.7857 3.10287
143 3 12.7111 16.6528 0.920149
167 3 12.7212 18.1008 3.02799
191 3 15.4005 18.0765 2.96789
239 3 12.6191 16.6719 5.20198
212 3 15.3741 16.539 5.18049
284 3 13.9885 15.725 7.33907
263 3 12.6035 18.1797 7.46763
288 3 15.3068 18.1182 7.36167
335 3 12.5884 16.5526 9.48384
308 3 15.3436 16.4629 9.38338
1 1 13.844 17.7743 12.0327
94 2 13.7559 16.2916 12.6712
3 1 13.386 15.7559 11.8343
59 1 14.4422 15.7537 12.9248
