ITEM: TIMESTEP
100000000
ITEM: NUMBER OF ATOMS
336
ITEM: BOX BOUNDS pp pp pp
0.0000000000000000e+00 1.6167135238600000e+01
0.0000000000000000e+00 1.8668199539200000e+01
0.0000000000000000e+00 2.5747400283800001e+01
ITEM: ATOMS id type x y z
145 3 3.20642 1.79733 3.10647
138 3 3.235 0.250323 1.07061
169 3 0.503795 1.7841 3.13412
97 3 0.626619 0.204314 1.0016
117 3 1.93364 2.69978 1.01183
234 3 3.23394 0.237757 5.25584
193 3 0.552178 0.232849 5.11785
213 3 1.86394 2.60584 5.24839
267 3 0.534333 1.82962 7.38466
241 3 3.28538 1.79957 7.39722
290 3 0.521255 0.229816 9.43921
309 3 1.98832 2.60327 9.43468
330 3 3.33211 0.333634 9.45828
8 1 1.16922 1.12079 11.9974
73 2 1.94873 2.49365 11.6827
85 2 0.653538 0.264861 11.6705
55 1 2.98173 2.70897 11.8189
101 3 3.31655 4.9348 1.00568
173 3 1.85505 4.05797 3.15118
129 3 0.61724 4.85627 0.905951
197 3 3.28232 4.98621 5.09355
225 3 0.474344 4.91851 5.14953
269 3 1.87015 4.20171 7.29538
321 3 0.49146 4.96828 9.40981
293 3 3.24057 4.96905 9.40766
92 2 0.563029 4.90653 11.6471
56 1 1.40475 3.17038 12.0759
63 1 1.07099 5.77947 12.0429
133 3 2.03214 7.2962 1.02883
177 3 3.2656 6.4456 3.07297
157 3 0.502763 6.4726 2.98279
161 3 1.90272 8.86306 3.06634
229 3 1.86816 7.27616 5.14575
273 3 3.21979 6.48451 7.4058
255 3 0.545627 6.54655 7.38321
257 3 1.91865 8.75405 7.35769
325 3 1.9915 7.18837 9.47112
13 1 1.65358 7.76905 11.7895
37 1 2.30896 7.18928 12.5988
69 2 1.35864 7.29075 12.4531
84 2 4.00809 6.47876 13.5308
146 3 3.23395 11.1849 3.04907
137 3 3.15224 9.58755 0.981794
170 3 0.565945 11.1068 3.0793
118 3 1.86711 11.9643 1.01554
98 3 0.570126 9.60276 0.936176
233 3 3.22328 9.53315 5.11715
194 3 0.517886 9.60669 5.22171
214 3 1.93314 11.8726 5.17045
242 3 3.248 11.1351 7.33608
268 3 0.606165 11.1012 7.40556
329 3 3.38229 9.67312 9.44677
289 3 0.64852 9.44005 9.49767
310 3 2.00695 11.8329 9.4231
10 1 1.61925 12.056 13.1991
40 1 2.80179 12.3859 11.9951
102 3 3.26827 14.2242 0.849662
174 3 1.94964 13.5026 3.10414
130 3 0.563475 14.119 0.955882
198 3 3.29477 14.2125 5.17983
226 3 0.608674 14.2212 5.21959
270 3 1.88625 13.3756 7.4129
294 3 3.06608 14.1612 9.40813
322 3 0.491691 14.1866 9.44144
24 1 1.24655 14.2499 13.3996
78 2 2.52445 12.6276 12.8921
90 2 0.619929 14.8348 12.9305
62 1 0.310347 14.1359 12.127
134 3 1.89408 16.5171 0.891197
178 3 3.31068 15.8442 3.02782
158 3 0.504478 15.8148 3.06777
162 3 1.9318 18.0487 3.03253
230 3 1.88654 16.6356 5.19418
256 3 0.599839 15.7458 7.37011
274 3 3.17725 15.8174 7.366
258 3 1.93213 18.167 7.43362
326 3 1.95889 16.5394 9.5874
67 2 2.05048 16.6698 11.6987
32 1 1.22064 18.0056 11.6951
25 1 3.16243 16.7081 11.8453
57 1 1.58096 15.9286 12.149
186 3 5.95829 1.74623 3.15615
110 3 5.96942 0.33561 1.06337
141 3 4.71401 2.5755 0.939935
114 3 7.30445 2.67441 0.967188
206 3 6.01981 0.222046 5.18655
210 3 7.28024 2.59703 5.2642
237 3 4.58261 2.64851 5.20111
282 3 6.05681 1.78008 7.37841
302 3 6.03475 0.272 9.48521
306 3 7.25097 2.6678 9.47699
333 3 4.65199 2.68022 9.42164
41 1 5.96609 1.14295 11.9745
89 2 6.07526 0.281428 11.7387
87 2 4.76587 2.96641 12.2227
27 1 7.11871 0.346176 11.6371
121 3 5.92759 4.94981 0.92018
189 3 7.29981 4.22183 3.04635
165 3 4.57727 4.10443 3.01544
217 3 5.94857 4.82636 5.18308
286 3 7.21507 4.08998 7.34797
261 3 4.49054 4.11621 7.33381
313 3 5.89587 4.91874 9.36622
96 2 6.83264 5.6908 12.798
48 1 4.88998 3.95953 12.7978
44 1 6.56684 5.84198 11.7651
54 1 5.02247 3.27092 11.24
125 3 7.38307 7.37536 0.952212
149 3 5.95815 6.42988 3.01752
105 3 4.59302 7.28287 0.999316
181 3 4.63219 8.80838 3.02834
153 3 7.31219 8.72429 2.9918
221 3 7.25796 7.20906 5.19157
201 3 4.57307 7.24534 5.18922
277 3 4.62475 8.87752 7.289
245 3 5.94562 6.52164 7.26983
249 3 7.30448 8.72388 7.37591
317 3 7.18275 7.30609 9.46352
297 3 4.58464 7.31905 9.3491
95 2 5.90521 8.92086 13.403
39 1 6.452 6.67125 13.2722
50 1 6.03041 8.6719 12.3764
51 1 4.35847 7.38606 13.7736
58 1 4.46811 6.31579 12.6137
185 3 5.86669 11.1768 3.04487
142 3 4.54389 11.9561 0.996297
113 3 7.22457 11.9278 0.962828
109 3 5.86327 9.72396 1.00083
205 3 5.98357 9.476 5.17604
238 3 4.59407 11.9402 5.17106
209 3 7.23273 11.9328 5.23538
281 3 5.89028 11.2183 7.31286
301 3 6.00847 9.67255 9.45544
334 3 4.62334 11.8873 9.36633
305 3 7.26602 11.915 9.50963
68 2 5.27333 11.4889 13.1307
35 1 4.97359 11.4974 12.1981
46 1 5.83843 10.0183 13.3676
21 1 4.5948 11.9292 13.5822
122 3 5.92193 14.3149 0.858919
190 3 7.33539 13.5595 3.08958
166 3 4.61859 13.5358 3.12875
218 3 5.83104 14.2635 5.14467
285 3 7.24048 13.5408 7.364
262 3 4.54214 13.522 7.43261
314 3 5.94726 14.2356 9.5013
49 1 6.89493 14.8022 12.4103
71 2 5.93433 14.4742 11.979
7 1 5.55544 13.4079 12.1672
126 3 7.36106 16.6025 0.974353
150 3 5.88367 15.8687 3.00834
106 3 4.61652 16.6656 1.031
154 3 7.33494 18.125 3.13151
182 3 4.60902 18.2433 3.14198
222 3 7.22515 16.5002 5.23952
202 3 4.60207 16.7084 5.22802
246 3 5.89401 15.7765 7.33736
278 3 4.62555 18.1285 7.38201
250 3 7.28558 18.0692 7.39713
318 3 7.20357 16.5563 9.42177
298 3 4.58663 16.6685 9.4917
88 2 4.64999 16.6631 11.881
31 1 5.03274 17.5747 11.8699
74 2 8.01333 16.1695 12.5949
28 1 5.15939 15.8994 12.3154
179 3 11.2946 1.76769 3.0219
103 3 11.3536 0.21273 0.97204
159 3 8.53797 1.83726 3.08907
131 3 8.62261 0.275576 0.976299
135 3 9.98318 2.60337 0.926739
199 3 11.2984 0.336319 5.25445
227 3 8.61326 0.145399 5.16782
231 3 9.9538 2.5768 5.18882
254 3 8.64508 1.83576 7.34399
275 3 11.3347 1.80301 7.44458
323 3 8.7273 0.216761 9.54247
327 3 9.92939 2.53104 9.4871
295 3 11.3248 0.25199 9.45569
76 2 8.7129 0.511508 11.7997
70 2 10.1321 2.51986 11.9606
29 1 9.36443 1.37408 11.8746
4 1 11.1515 2.66726 11.9291
139 3 11.3354 4.99788 0.913065
163 3 9.97162 3.98149 2.94216
100 3 8.67594 4.94801 0.935503
235 3 11.3365 4.87469 5.05723
196 3 8.6245 4.87901 5.21568
259 3 9.94655 4.1986 7.36603
331 3 11.2622 5.05637 9.45171
291 3 8.59812 4.95098 9.44691
86 2 9.61538 4.92356 12.901
64 1 9.75946 3.36362 12.3633
42 1 9.9009 5.39949 12.155
61 1 8.62016 5.22196 12.8951
120 3 10.0121 7.26342 0.927406
148 3 11.3032 6.38797 3.01445
172 3 8.65363 6.45633 3.06751
176 3 9.96754 8.82419 3.08339
216 3 9.96785 7.28091 5.20717
265 3 8.53593 6.49798 7.31436
244 3 11.3132 6.41118 7.30212
272 3 10.0049 8.85766 7.38214
312 3 9.85268 7.16934 9.44718
33 1 8.56283 7.98281 10.5782
23 1 11.9224 8.15387 12.1987
180 3 11.2501 11.0987 3.04865
104 3 11.3076 9.64444 0.903055
160 3 8.58965 11.1006 3.09029
136 3 9.92476 11.8982 0.976024
132 3 8.54252 9.6349 0.920103
232 3 9.96553 11.8625 5.20793
200 3 11.3314 9.58501 5.16916
228 3 8.56089 9.57521 5.219
276 3 11.3346 11.2198 7.34809
253 3 8.54024 11.1402 7.40075
324 3 8.66803 9.57874 9.50498
296 3 11.3172 9.6076 9.54457
328 3 9.94753 11.9297 9.52736
72 2 11.3023 9.55211 11.8381
11 1 11.8687 10.3459 12.0811
77 2 8.77383 10.4543 12.7283
53 1 10.415 9.73131 12.1462
6 1 8.25726 10.3446 11.877
34 1 9.02781 12.3773 13.1361
60 1 8.23363 9.78624 13.2184
140 3 11.3049 14.2126 0.985788
164 3 9.96418 13.4589 3.02709
99 3 8.64724 14.3107 1.01111
236 3 11.3509 14.2532 5.12702
195 3 8.60891 14.2871 5.21203
260 3 10.0005 13.4766 7.33964
332 3 11.3354 14.2458 9.41013
292 3 8.68344 14.2194 9.38496
93 2 11.5743 13.9269 12.9107
36 1 11.6541 14.8235 12.6004
16 1 10.6664 13.6837 12.8252
66 2 8.88678 13.2876 12.841
18 1 8.8172 13.2624 11.8846
119 3 10.025 16.6061 1.0048
147 3 11.3757 15.902 2.93778
171 3 8.66457 15.8233 3.07592
175 3 10.002 18.1652 3.01718
215 3 10.0007 16.6248 5.22215
266 3 8.65731 15.7992 7.29821
243 3 11.3402 15.8108 7.36947
271 3 10.0073 18.1872 7.36687
311 3 9.9214 16.6232 9.47813
52 1 9.30064 18.3949 12.1618
30 1 11.0784 17.0402 11.6325
82 2 10.843 16.7829 12.7315
14 1 11.5598 17.188 13.392
19 1 8.88409 16.0487 13.0088
45 1 8.08784 16.504 11.6799
151 3 13.9264 1.78746 3.0458
127 3 15.4092 2.6019 1.07994
107 3 12.7433 2.48665 0.909507
123 3 14.1221 0.222857 0.912029
219 3 13.9826 0.223896 5.24296
203 3 12.6569 2.60702 5.20769
223 3 15.3883 2.55655 5.11024
247 3 14.0831 1.76078 7.41467
315 3 13.8927 0.089785 9.41251
299 3 12.6914 2.52109 9.48488
319 3 15.3663 2.64235 9.4092
75 2 12.6661 2.70915 11.9336
5 1 12.9768 1.78621 12.2839
65 2 14.1906 0.0153898 11.765
17 1 15.1516 0.127993 12.0245
111 3 14.1213 4.75934 0.894852
155 3 15.3656 4.13291 3.07474
183 3 12.6703 4.07143 2.99254
207 3 14.0351 4.83957 5.12296
279 3 12.6567 4.09126 7.37623
251 3 15.4148 4.11668 7.39438
303 3 14.0047 4.92162 9.48528
2 1 15.7664 4.76403 12.0909
12 1 13.8177 5.17229 12.2347
91 2 14.1251 4.57553 11.6677
43 1 13.6007 3.55514 12.0564
115 3 15.4533 7.1668 0.860164
187 3 14.0337 6.38744 2.85164
144 3 12.6398 7.30638 0.924726
168 3 12.6585 8.78322 3.03209
192 3 15.3553 8.75712 3.02177
211 3 15.44 7.2736 5.14262
240 3 12.6548 7.1522 5.14034
287 3 15.3479 8.80324 7.31728
264 3 12.6741 8.76735 7.38426
283 3 13.9672 6.51617 7.4055
307 3 15.3372 7.32092 9.39858
336 3 12.6193 7.22207 9.39199
79 2 12.365 7.20597 12.2395
22 1 13.2261 7.34169 12.684
38 1 15.1733 8.52599 12.0517
83 2 14.7656 8.3593 13.0367
47 1 15.5014 8.11251 13.6488
152 3 13.9462 11.0486 3.11503
128 3 15.3237 11.8846 1.06095
108 3 12.6243 11.7765 0.951173
124 3 13.8671 9.63601 1.01528
220 3 13.9931 9.5253 5.21845
224 3 15.4152 11.8403 5.16826
204 3 12.5757 11.9378 5.18976
248 3 13.9648 11.1147 7.31292
316 3 14.111 9.49729 9.40066
320 3 15.4182 11.8415 9.38711
300 3 12.6786 11.8374 9.51642
81 2 12.8069 11.8641 11.9869
80 2 15.7081 11.4418 12.5302
15 1 15.1777 10.5296 12.9066
9 1 13.7277 11.99 12.1359
20 1 16.0125 11.3354 11.5031
112 3 13.9954 14.2165 0.908102
156 3 15.3288 13.43 3.02509
184 3 12.6966 13.4397 2.99733
208 3 13.9911 14.2617 5.20104
252 3 15.32 13.4735 7.33091
280 3 12.6768 13.4398 7.32237
304 3 13.9936 14.2652 9.44349
26 1 12.4076 12.7819 12.3147
116 3 15.4068 16.6563 0.909081
188 3 14.0314 15.7868 3.08704
143 3 12.7384 16.6697 0.856367
167 3 12.7089 18.0898 3.01122
191 3 15.4001 18.0694 2.92627
212 3 15.393 16.5476 5.18047
239 3 12.5867 16.679 5.20082
288 3 15.308 18.1404 7.31913
284 3 13.9853 15.7682 7.35881
263 3 12.6306 18.1211 7.45341
308 3 15.3056 16.4944 9.38173
335 3 12.5778 16.5577 9.48665
1 1 14.0295 17.5717 12.024
94 2 13.649 16.3869 12.6904
3 1 13.5137 16.0396 11.7504
59 1 14.4124 16.1073 13.1156
