ITEM: TIMESTEP
100000000
ITEM: NUMBER OF ATOMS
336
ITEM: BOX BOUNDS pp pp pp
0.0000000000000000e+00 1.6167135238600000e+01
0.0000000000000000e+00 1.8668199539200000e+01
0.0000000000000000e+00 2.5747400283800001e+01
ITEM: ATOMS id type x y z
145 3 3.21365 1.78473 3.11766
138 3 3.22734 0.245459 1.07097
169 3 0.512801 1.78688 3.12832
97 3 0.616127 0.193235 1.02016
117 3 1.9306 2.68714 1.01099
234 3 3.2347 0.235202 5.25539
193 3 0.54931 0.230894 5.13204
213 3 1.87349 2.6099 5.2523
241 3 3.27604 1.80469 7.39202
267 3 0.542733 1.82469 7.38314
290 3 0.521533 0.224869 9.42634
309 3 1.98205 2.6076 9.4442
330 3 3.34438 0.346239 9.45108
8 1 1.05258 1.16295 11.9306
73 2 1.95456 2.46575 11.6933
85 2 0.634829 0.246083 11.7176
55 1 2.99664 2.70703 11.853
101 3 3.32234 4.92338 0.976773
173 3 1.87633 4.0584 3.13929
129 3 0.609326 4.8497 0.907454
197 3 3.28527 4.99047 5.10292
225 3 0.482064 4.92116 5.14861
269 3 1.88388 4.20455 7.29623
293 3 3.25195 4.97044 9.40157
321 3 0.494237 4.97629 9.40418
92 2 0.564962 4.8887 11.635
63 1 1.10884 5.88209 12.0459
56 1 1.38329 3.16093 12.0997
133 3 2.02878 7.3061 1.04365
177 3 3.27048 6.45357 3.07223
157 3 0.503651 6.47851 2.9675
161 3 1.89618 8.85738 3.05576
229 3 1.85297 7.27713 5.14169
257 3 1.91563 8.75838 7.3557
273 3 3.24258 6.4723 7.40184
255 3 0.534875 6.52221 7.3959
325 3 1.98539 7.18458 9.45662
37 1 2.31261 7.20921 12.6583
13 1 1.65359 7.96398 11.786
69 2 1.40048 7.29282 12.4354
84 2 4.00019 6.49141 13.4954
146 3 3.22782 11.1851 3.03747
137 3 3.15361 9.59225 1.00187
170 3 0.567213 11.1163 3.08085
118 3 1.86772 11.9618 1.01558
98 3 0.561343 9.59109 0.925218
233 3 3.2269 9.52818 5.12382
194 3 0.525501 9.60405 5.23974
214 3 1.93272 11.8701 5.16197
242 3 3.25955 11.1303 7.34463
268 3 0.604214 11.0981 7.41075
329 3 3.37377 9.67058 9.45237
289 3 0.646964 9.42855 9.49996
310 3 1.98995 11.8302 9.41348
10 1 1.52053 12.1785 13.2149
40 1 2.7539 12.4191 11.9257
102 3 3.2652 14.211 0.86311
174 3 1.9345 13.5033 3.08766
130 3 0.573121 14.1144 0.950614
198 3 3.29506 14.2029 5.19926
226 3 0.60946 14.2147 5.22061
270 3 1.88225 13.3978 7.39463
322 3 0.505433 14.1761 9.42445
294 3 3.05621 14.1399 9.40404
24 1 1.36798 14.2104 13.3645
78 2 2.54316 12.6237 12.8713
90 2 0.633517 14.8077 12.8959
62 1 0.457343 14.1759 12.1566
134 3 1.90176 16.5259 0.882949
178 3 3.31551 15.8307 3.04143
158 3 0.501884 15.8119 3.08386
162 3 1.92192 18.0692 3.02815
230 3 1.87312 16.629 5.19693
256 3 0.611007 15.7445 7.37019
274 3 3.15998 15.8236 7.36621
258 3 1.94835 18.1567 7.43821
326 3 1.94744 16.5457 9.58539
67 2 2.03654 16.7073 11.6635
32 1 1.30508 18.206 11.7737
25 1 3.19615 16.7386 11.7773
57 1 1.51001 15.857 12.3084
186 3 5.96556 1.73546 3.16689
110 3 5.97246 0.333993 1.06072
114 3 7.31095 2.66245 0.982449
141 3 4.73669 2.57822 0.93405
206 3 6.02933 0.220235 5.17764
210 3 7.29002 2.59446 5.26524
237 3 4.58439 2.63648 5.2071
282 3 6.05378 1.76995 7.39752
302 3 6.04166 0.253437 9.48865
306 3 7.24259 2.68546 9.47257
333 3 4.66066 2.69729 9.43205
41 1 6.01122 1.10586 12.0872
89 2 6.0935 0.288536 11.7238
27 1 7.03312 0.129708 11.8227
87 2 4.76668 2.9481 12.1923
121 3 5.93529 4.94516 0.919209
189 3 7.2956 4.22353 3.05038
165 3 4.57918 4.10551 3.00366
217 3 5.97001 4.82058 5.19041
286 3 7.20793 4.08179 7.33185
261 3 4.47997 4.10297 7.34983
313 3 5.88464 4.93199 9.38268
96 2 6.82124 5.68238 12.7809
44 1 6.45661 5.86601 11.7947
48 1 4.95627 3.88576 12.8126
54 1 4.95406 3.39021 11.1699
125 3 7.36763 7.37336 0.959364
149 3 5.9572 6.42089 3.01221
105 3 4.59076 7.29616 0.998952
153 3 7.31124 8.70588 2.97528
181 3 4.63216 8.80125 3.02252
221 3 7.25719 7.2093 5.1906
201 3 4.57521 7.24154 5.187
277 3 4.61747 8.88169 7.29142
245 3 5.93988 6.51377 7.25874
249 3 7.31002 8.72978 7.38278
317 3 7.1851 7.30374 9.45637
297 3 4.57488 7.30367 9.35431
39 1 6.48363 6.5857 13.1584
95 2 5.94049 8.91824 13.3844
50 1 6.08156 8.76771 12.4261
51 1 4.31923 7.32366 13.8032
58 1 4.57755 6.39837 12.563
185 3 5.88381 11.1831 3.04512
113 3 7.22649 11.9197 0.970971
142 3 4.53788 11.9542 0.989877
109 3 5.86602 9.73129 0.997339
205 3 5.98945 9.49199 5.18348
238 3 4.58948 11.9376 5.18666
209 3 7.23337 11.9347 5.23375
281 3 5.88903 11.2213 7.31622
301 3 5.98611 9.66035 9.45616
334 3 4.63029 11.9029 9.37266
305 3 7.26935 11.9106 9.51658
68 2 5.25945 11.4435 13.1578
35 1 4.96624 11.5572 12.2467
21 1 4.48275 11.8337 13.5483
46 1 5.77123 9.91158 13.2755
122 3 5.9219 14.3245 0.863427
190 3 7.33384 13.5516 3.09743
166 3 4.61951 13.5346 3.10229
218 3 5.83744 14.258 5.15807
285 3 7.23733 13.5544 7.36186
262 3 4.54945 13.5156 7.41685
314 3 5.93286 14.2334 9.49376
49 1 6.84928 14.7269 12.3504
71 2 5.93821 14.4647 11.9837
7 1 5.68975 13.5659 12.2453
126 3 7.35697 16.5936 0.985758
150 3 5.87919 15.8714 3.01951
106 3 4.61972 16.6764 1.02465
154 3 7.3391 18.124 3.13678
182 3 4.60739 18.2311 3.14976
222 3 7.2107 16.4919 5.24852
202 3 4.59934 16.6928 5.23666
246 3 5.88888 15.7749 7.32
278 3 4.63425 18.1514 7.37547
250 3 7.28197 18.0744 7.40347
318 3 7.21786 16.5451 9.40693
298 3 4.59414 16.6651 9.48621
88 2 4.67978 16.6551 11.9055
31 1 5.12884 17.5379 11.9046
74 2 8.0027 16.1743 12.5398
28 1 5.2901 15.8649 12.3631
179 3 11.3003 1.76631 3.01268
103 3 11.3613 0.233884 0.971585
159 3 8.53691 1.83778 3.07061
131 3 8.63973 0.272171 0.969024
135 3 9.96926 2.60835 0.93583
231 3 9.95363 2.58277 5.1775
199 3 11.2906 0.317026 5.25424
227 3 8.63253 0.141831 5.17232
254 3 8.64948 1.84608 7.34351
275 3 11.3418 1.80042 7.44859
327 3 9.93415 2.53383 9.50581
295 3 11.3252 0.25112 9.4597
323 3 8.74232 0.210637 9.53451
70 2 10.1013 2.51788 11.9318
76 2 8.67873 0.490823 11.8257
29 1 9.18668 1.31255 11.8652
4 1 11.059 2.75564 11.981
139 3 11.3346 4.99527 0.929799
163 3 9.96907 3.98114 2.95332
100 3 8.6697 4.9399 0.924296
235 3 11.3247 4.87541 5.06971
196 3 8.63333 4.88225 5.2047
259 3 9.94644 4.20798 7.35783
331 3 11.2652 5.04208 9.45544
291 3 8.59499 4.94719 9.44195
64 1 9.76532 3.33708 12.3649
86 2 9.61705 4.9432 12.9156
61 1 8.61205 5.19501 13.1013
42 1 9.98268 5.57118 12.2404
120 3 10.0018 7.261 0.921766
148 3 11.3071 6.39388 3.03346
172 3 8.65386 6.46519 3.06704
176 3 9.96581 8.82436 3.09648
216 3 9.95977 7.29948 5.2102
265 3 8.53924 6.47402 7.31443
244 3 11.3251 6.4107 7.30241
272 3 10.0109 8.85515 7.40006
312 3 9.86475 7.16994 9.42972
33 1 8.66125 7.98387 10.4905
23 1 11.8929 8.09281 12.2467
180 3 11.2448 11.091 3.03873
104 3 11.3203 9.64296 0.908042
160 3 8.59191 11.0955 3.07319
132 3 8.54803 9.61979 0.911683
136 3 9.92622 11.9107 0.969552
200 3 11.3248 9.60011 5.18211
228 3 8.56616 9.56493 5.2191
232 3 9.97574 11.8721 5.21535
253 3 8.541 11.1426 7.39814
276 3 11.3451 11.2246 7.36215
324 3 8.6737 9.57836 9.50188
296 3 11.3273 9.58418 9.54176
328 3 9.94586 11.9293 9.51278
11 1 11.965 10.3393 12.0609
77 2 8.78685 10.4622 12.729
72 2 11.3202 9.54529 11.8125
53 1 10.5093 9.91084 12.2009
34 1 8.99523 12.3432 13.1154
6 1 8.28403 10.5154 11.8916
60 1 8.18388 9.77339 13.3463
140 3 11.3178 14.204 1.00252
164 3 9.95098 13.4577 3.03546
99 3 8.65245 14.2963 1.01627
236 3 11.3615 14.2485 5.12488
195 3 8.6227 14.2816 5.21433
260 3 9.97922 13.4552 7.33815
332 3 11.3339 14.2401 9.41313
292 3 8.67437 14.2243 9.3753
36 1 11.558 14.9077 12.5737
93 2 11.5724 13.9596 12.8525
16 1 10.5062 13.5961 12.8493
66 2 8.89689 13.2908 12.8907
18 1 8.81506 13.1109 11.8714
119 3 10.0241 16.6132 1.00269
147 3 11.3879 15.8906 2.94526
171 3 8.66182 15.812 3.06848
175 3 10.0042 18.1833 3.01394
215 3 10.0083 16.611 5.23564
266 3 8.64855 15.8098 7.30852
243 3 11.3435 15.8238 7.36451
271 3 10.0061 18.179 7.36688
311 3 9.92431 16.6262 9.48301
14 1 11.5781 17.0623 13.3292
30 1 11.0436 17.1795 11.7569
82 2 10.8291 16.8091 12.7364
52 1 9.40201 18.4089 12.1425
45 1 8.12944 16.4426 11.6922
19 1 8.94787 16.0598 13.0162
151 3 13.9113 1.80352 3.04865
127 3 15.419 2.59527 1.07512
107 3 12.7425 2.49163 0.907229
123 3 14.1236 0.217056 0.909793
219 3 13.9903 0.222407 5.24264
203 3 12.6502 2.61039 5.21088
223 3 15.3916 2.54704 5.12086
247 3 14.0721 1.76684 7.40446
315 3 13.8918 0.0811364 9.40531
299 3 12.68 2.5171 9.4814
319 3 15.3579 2.64397 9.40963
5 1 13.1928 1.77411 12.1911
75 2 12.6292 2.64045 11.9573
17 1 15.0651 0.278063 12.0182
65 2 14.2329 0.0107853 11.7438
111 3 14.1107 4.7655 0.894051
155 3 15.3667 4.14109 3.07761
183 3 12.6595 4.07647 2.98568
207 3 14.0303 4.83849 5.11651
251 3 15.4244 4.12703 7.41035
279 3 12.6533 4.08451 7.38389
303 3 14.0084 4.9378 9.48556
91 2 14.1168 4.57405 11.6737
12 1 13.7996 5.28457 12.243
2 1 15.8005 4.58962 11.9864
43 1 13.4861 3.56111 12.0167
115 3 15.434 7.16834 0.84547
187 3 14.0497 6.37951 2.85943
144 3 12.6357 7.29894 0.926762
192 3 15.3339 8.75209 3.01642
168 3 12.6494 8.77833 3.02311
211 3 15.4443 7.27796 5.15053
240 3 12.6416 7.16153 5.13788
287 3 15.3476 8.79996 7.31853
264 3 12.6747 8.77398 7.38876
283 3 13.9828 6.51477 7.40306
307 3 15.3442 7.31659 9.40474
336 3 12.6164 7.21427 9.41288
79 2 12.3447 7.21544 12.2361
22 1 13.2616 7.47606 12.5991
38 1 15.038 8.30276 11.9848
83 2 14.7939 8.34435 13.0273
47 1 15.5445 8.11018 13.5968
152 3 13.9448 11.0463 3.11395
108 3 12.6323 11.7756 0.954592
128 3 15.3211 11.8888 1.07434
124 3 13.8637 9.63114 1.017
220 3 13.9711 9.52467 5.19219
224 3 15.4227 11.8427 5.17507
204 3 12.5757 11.9327 5.20699
248 3 13.9711 11.0888 7.30647
316 3 14.1215 9.49517 9.40772
320 3 15.4018 11.8464 9.38127
300 3 12.6876 11.8393 9.50957
81 2 12.7789 11.9231 11.9907
9 1 13.7602 12.0147 12.1142
15 1 15.3265 10.6605 12.8934
80 2 15.6893 11.4544 12.5203
20 1 15.9407 11.2453 11.4248
112 3 13.9909 14.2026 0.896597
156 3 15.3367 13.4265 3.01473
184 3 12.6936 13.4421 2.99271
208 3 13.9866 14.2586 5.21333
252 3 15.3318 13.4671 7.32538
280 3 12.6815 13.4405 7.31903
304 3 13.9996 14.2592 9.43992
26 1 12.3208 12.7519 12.2657
116 3 15.4129 16.6699 0.908442
188 3 14.0353 15.7981 3.09636
143 3 12.7312 16.6642 0.868413
167 3 12.7086 18.0851 3.01269
191 3 15.4025 18.0743 2.95332
212 3 15.3893 16.5519 5.17945
239 3 12.5914 16.6774 5.20102
288 3 15.3074 18.1299 7.32618
284 3 13.9837 15.7796 7.351
263 3 12.6226 18.1396 7.45528
308 3 15.3065 16.492 9.38335
335 3 12.5789 16.5362 9.49936
1 1 14.1164 17.6086 11.9304
94 2 13.7047 16.3516 12.693
3 1 13.421 15.8817 11.7106
59 1 14.5324 15.9817 12.9443
