ITEM: TIMESTEP
100000000
ITEM: NUMBER OF ATOMS
336
ITEM: BOX BOUNDS pp pp pp
0.0000000000000000e+00 1.6167135238600000e+01
0.0000000000000000e+00 1.8668199539200000e+01
0.0000000000000000e+00 2.5747400283800001e+01
ITEM: ATOMS id type x y z
145 3 3.18424 1.82816 3.1015
138 3 3.26662 0.226921 1.07154
169 3 0.515578 1.79136 3.10112
117 3 1.95587 2.69126 0.993259
97 3 0.622279 0.195986 1.00761
234 3 3.23897 0.213732 5.26721
193 3 0.609685 0.254977 5.13884
213 3 1.89902 2.59393 5.25699
267 3 0.547612 1.83316 7.38986
241 3 3.28444 1.78438 7.38999
290 3 0.551752 0.222462 9.4229
330 3 3.35689 0.34469 9.46342
309 3 1.99254 2.61021 9.44261
8 1 1.13832 1.25875 11.6081
73 2 1.94141 2.52356 11.7139
85 2 0.634636 0.223859 11.6975
55 1 2.80316 2.54772 12.0116
101 3 3.33749 4.91529 0.944043
173 3 1.84129 4.06112 3.14559
129 3 0.627908 4.84266 0.93112
197 3 3.27465 4.954 5.10801
225 3 0.470432 4.90911 5.15618
269 3 1.85341 4.21738 7.27283
293 3 3.24619 4.97808 9.41786
321 3 0.529524 4.99571 9.40389
63 1 0.912874 5.91247 11.916
92 2 0.608249 4.90896 11.69
56 1 1.55131 3.27465 12.229
133 3 2.06002 7.30885 1.03728
177 3 3.27224 6.44379 3.08754
157 3 0.520552 6.48834 2.98223
161 3 1.87786 8.84079 3.03372
229 3 1.84848 7.24692 5.12392
257 3 1.91049 8.75518 7.33765
273 3 3.24716 6.45476 7.37893
255 3 0.544806 6.53257 7.39489
325 3 1.97022 7.19521 9.47333
37 1 2.34795 7.07292 12.8342
13 1 1.51888 8.10919 11.5194
69 2 1.44421 7.33125 12.4861
84 2 4.0407 6.46445 13.5123
146 3 3.20484 11.1963 3.04441
137 3 3.16754 9.58479 1.00344
170 3 0.582786 11.1359 3.08212
118 3 1.86068 11.9604 1.0243
98 3 0.5514 9.5925 0.920088
233 3 3.23197 9.51828 5.11447
194 3 0.51995 9.60113 5.23766
214 3 1.95804 11.8812 5.18683
242 3 3.28406 11.1441 7.36175
268 3 0.61374 11.098 7.41645
329 3 3.40349 9.66831 9.43129
289 3 0.649887 9.43043 9.47549
310 3 2.00633 11.8685 9.42603
10 1 1.55262 12.1679 13.1442
102 3 3.25877 14.2316 0.873808
174 3 1.93957 13.5159 3.08971
130 3 0.527068 14.1307 0.956827
226 3 0.615143 14.2225 5.23261
198 3 3.29309 14.2134 5.18211
270 3 1.88554 13.4121 7.37497
294 3 3.08271 14.1639 9.41202
322 3 0.491056 14.1957 9.45839
24 1 1.33912 14.2638 13.415
78 2 2.52352 12.5838 12.8878
62 1 0.501456 14.4552 12.0334
90 2 0.549689 14.8134 12.939
40 1 2.5841 12.6215 11.7697
134 3 1.89382 16.5344 0.908024
178 3 3.30568 15.8376 3.03198
158 3 0.515872 15.8169 3.10342
162 3 1.93943 18.0605 3.04402
230 3 1.88419 16.6019 5.18171
274 3 3.19049 15.808 7.35375
256 3 0.602883 15.7601 7.39068
258 3 1.93032 18.1263 7.45023
326 3 1.93064 16.536 9.59254
32 1 1.27256 18.2497 12.0411
67 2 2.02756 16.7041 11.7576
25 1 2.99751 16.6962 11.9036
57 1 1.59243 15.9433 12.2338
186 3 5.94828 1.74254 3.18304
110 3 5.97594 0.346323 1.08781
114 3 7.29006 2.66111 0.972336
141 3 4.72454 2.58235 0.926354
210 3 7.28449 2.58168 5.29787
206 3 6.04573 0.217696 5.16921
237 3 4.60182 2.63581 5.20821
282 3 6.07657 1.77162 7.39368
302 3 6.03319 0.239025 9.47655
306 3 7.2639 2.66666 9.44457
333 3 4.67119 2.6889 9.42662
41 1 5.9692 1.39364 11.9725
27 1 7.29088 0.101085 11.8885
89 2 6.11076 0.308776 11.7522
87 2 4.80406 2.95343 12.2694
121 3 5.94936 4.90866 0.913774
189 3 7.30712 4.18804 3.05997
165 3 4.57 4.15135 2.98442
217 3 5.95495 4.83894 5.19114
286 3 7.23935 4.08295 7.32948
261 3 4.4729 4.1161 7.35134
313 3 5.8514 4.93046 9.39105
96 2 6.85589 5.73227 12.8279
48 1 5.1189 3.66972 12.985
44 1 6.61699 5.88701 11.7099
54 1 4.74132 3.628 11.5604
58 1 4.33569 6.12723 12.6386
125 3 7.39495 7.36398 0.969165
149 3 5.94009 6.42226 3.01096
105 3 4.61465 7.2751 0.994404
181 3 4.63427 8.82888 3.02874
153 3 7.29564 8.73299 2.9869
201 3 4.58261 7.24358 5.20795
221 3 7.29635 7.19483 5.21078
249 3 7.32593 8.74231 7.34909
245 3 5.93059 6.54008 7.25721
277 3 4.59629 8.90526 7.28197
317 3 7.21755 7.28454 9.44658
297 3 4.56927 7.31267 9.33973
50 1 6.16099 9.03069 12.3313
95 2 6.00438 8.86601 13.2561
39 1 6.55811 6.56528 13.2763
51 1 4.18961 7.3421 13.8744
185 3 5.88917 11.1908 3.04365
113 3 7.23274 11.9279 0.970466
142 3 4.55033 11.9566 1.0077
109 3 5.82664 9.69711 1.00264
205 3 5.97772 9.46834 5.16381
209 3 7.22977 11.944 5.26184
238 3 4.57821 11.9633 5.16668
281 3 5.90391 11.1786 7.32118
334 3 4.62703 11.9112 9.37766
305 3 7.24815 11.9015 9.49839
301 3 5.98754 9.64179 9.45502
68 2 5.305 11.4683 13.0699
35 1 4.78309 11.444 12.2502
21 1 4.55031 11.7989 13.6768
46 1 5.65101 9.83144 13.5374
122 3 5.92898 14.3415 0.863997
190 3 7.33505 13.5721 3.09838
166 3 4.62475 13.5624 3.11462
218 3 5.84152 14.2583 5.16931
285 3 7.20221 13.5364 7.37336
262 3 4.55212 13.5009 7.40974
314 3 5.91907 14.2008 9.5059
71 2 5.9264 14.4743 12.0072
7 1 5.79792 13.6865 12.4873
49 1 6.82943 15.0629 12.1844
126 3 7.34679 16.587 0.941686
150 3 5.90058 15.8678 3.01481
106 3 4.60734 16.6921 1.02855
154 3 7.35279 18.0993 3.13292
182 3 4.59523 18.2301 3.12347
222 3 7.20658 16.4894 5.23924
202 3 4.62414 16.7032 5.22725
246 3 5.92427 15.8051 7.31563
278 3 4.62919 18.1363 7.37259
250 3 7.29256 18.0936 7.42764
298 3 4.55855 16.6754 9.4753
318 3 7.19984 16.5601 9.42168
88 2 4.6615 16.6607 11.9701
31 1 5.14696 17.4362 11.9872
28 1 5.18454 15.7535 12.0292
74 2 8.07699 16.2149 12.5677
179 3 11.2955 1.76871 3.0327
103 3 11.3478 0.22985 0.954559
159 3 8.58087 1.8364 3.06658
131 3 8.64217 0.247909 0.984008
135 3 9.95367 2.60357 0.938406
227 3 8.63804 0.157598 5.19263
199 3 11.2803 0.318247 5.2949
231 3 9.99088 2.56473 5.17349
254 3 8.65417 1.85639 7.34345
275 3 11.3182 1.81665 7.44171
323 3 8.74405 0.210701 9.52746
327 3 9.95437 2.53288 9.48047
295 3 11.3114 0.271539 9.46855
29 1 9.43003 1.28793 12.0711
76 2 8.69175 0.541869 11.8166
70 2 10.0579 2.49615 11.905
4 1 11.232 2.65506 12.0096
139 3 11.3301 5.00978 0.914416
163 3 9.96909 4.0003 2.92889
100 3 8.68397 4.92131 0.940829
235 3 11.3153 4.85752 5.047
196 3 8.63347 4.85167 5.20447
259 3 9.94454 4.21625 7.37943
331 3 11.2639 5.03579 9.45813
291 3 8.60454 4.95217 9.43791
61 1 8.59294 5.22313 13.0625
86 2 9.59202 4.93895 12.9578
64 1 9.79664 3.27592 12.3843
42 1 9.987 5.67704 12.4455
120 3 10.0081 7.25105 0.933492
148 3 11.2993 6.38002 3.02953
172 3 8.6333 6.45316 3.08815
176 3 9.98025 8.8103 3.10591
216 3 9.96801 7.30329 5.18366
265 3 8.54485 6.47616 7.32744
244 3 11.3194 6.39388 7.26855
272 3 9.99916 8.84056 7.38567
312 3 9.86298 7.16337 9.42112
33 1 8.58212 7.82076 10.6679
23 1 11.9066 8.03878 12.1448
180 3 11.2244 11.1336 3.04709
104 3 11.318 9.61862 0.904633
160 3 8.6126 11.1348 3.05872
132 3 8.56835 9.65045 0.907003
136 3 9.91843 11.905 1.01595
200 3 11.3155 9.59724 5.16216
228 3 8.5637 9.55402 5.23143
232 3 9.94846 11.8878 5.22322
253 3 8.55878 11.1196 7.42732
276 3 11.3659 11.2011 7.37209
296 3 11.3459 9.61115 9.53261
328 3 9.93864 11.9203 9.51083
324 3 8.65194 9.54212 9.5109
77 2 8.8029 10.4346 12.6978
53 1 10.5075 9.82363 12.1846
72 2 11.3131 9.5723 11.7967
11 1 12.0062 10.2753 12.0556
6 1 8.46394 10.3142 11.7806
34 1 8.97169 12.2012 13.0658
60 1 8.21139 10.0281 13.3379
140 3 11.3303 14.1893 0.993746
164 3 9.97285 13.455 3.06535
99 3 8.64817 14.2967 0.989916
236 3 11.3732 14.23 5.09474
195 3 8.6221 14.2753 5.19774
260 3 9.98517 13.4407 7.32638
332 3 11.3117 14.207 9.41382
292 3 8.68053 14.2087 9.35284
93 2 11.5515 13.9391 12.9058
36 1 11.8702 14.864 12.8022
16 1 10.5371 13.7308 12.7341
66 2 9.02785 13.2718 12.8186
18 1 8.87423 13.3626 11.7564
119 3 10.0339 16.6157 1.01435
147 3 11.3605 15.8739 2.94541
171 3 8.67918 15.8148 3.10319
175 3 9.99462 18.1903 3.04274
215 3 9.9985 16.6103 5.22309
266 3 8.6249 15.8029 7.32181
243 3 11.338 15.7996 7.38729
271 3 9.97664 18.2147 7.37158
311 3 9.92388 16.6177 9.47597
52 1 9.17921 18.5019 12.1356
30 1 10.9903 17.0946 11.76
82 2 10.8066 16.8934 12.6869
14 1 11.6878 16.9836 13.1144
19 1 8.96113 15.9054 12.616
45 1 8.20622 16.7007 11.7909
151 3 13.9075 1.7769 3.06964
127 3 15.4203 2.60685 1.08248
107 3 12.7694 2.48193 0.881221
123 3 14.1314 0.197278 0.934643
219 3 14.0148 0.236141 5.24812
203 3 12.6601 2.61743 5.21306
223 3 15.3698 2.55418 5.1053
247 3 14.0518 1.76616 7.40792
299 3 12.7018 2.54735 9.48913
319 3 15.3491 2.64271 9.46235
315 3 13.9067 0.099051 9.44696
5 1 13.0426 1.82454 12.171
75 2 12.6407 2.63999 11.91
65 2 14.197 0.049113 11.7001
17 1 15.0918 0.294976 11.9831
111 3 14.0909 4.78158 0.877412
155 3 15.3922 4.13503 3.06062
183 3 12.6564 4.10368 2.99481
207 3 14.0306 4.84783 5.12617
251 3 15.4284 4.15165 7.42021
279 3 12.6305 4.08147 7.37406
303 3 14.0216 4.9491 9.47261
12 1 13.6781 5.40482 12.1292
2 1 15.7036 4.68684 12.0038
91 2 14.1393 4.5946 11.6693
43 1 13.4346 3.61059 11.7754
115 3 15.4336 7.16453 0.85805
187 3 14.0528 6.38921 2.85146
144 3 12.6242 7.31846 0.934202
192 3 15.3606 8.73935 2.99237
168 3 12.6515 8.7712 3.0392
211 3 15.4401 7.28691 5.12945
240 3 12.6364 7.16694 5.13588
287 3 15.3438 8.7846 7.31466
264 3 12.6586 8.76073 7.39744
283 3 13.9792 6.52626 7.41001
336 3 12.6053 7.2146 9.43514
307 3 15.3396 7.32304 9.39803
22 1 13.0822 7.3249 12.6341
79 2 12.2957 7.22179 12.204
47 1 15.5644 8.20642 13.3878
83 2 14.7565 8.32006 12.987
38 1 15.1825 8.09575 12.0171
152 3 13.9485 11.0681 3.09839
108 3 12.6407 11.7945 0.9625
128 3 15.3345 11.8779 1.05492
124 3 13.8493 9.62882 1.02259
220 3 13.9719 9.51269 5.20002
224 3 15.4093 11.8613 5.16539
204 3 12.5678 11.9326 5.17745
248 3 13.964 11.0863 7.30674
316 3 14.1019 9.51506 9.41265
320 3 15.3928 11.8551 9.39402
300 3 12.7148 11.8066 9.51187
81 2 12.8005 11.9329 11.9698
9 1 13.8345 12.0946 12.1572
15 1 15.3566 10.6398 12.7951
80 2 15.6343 11.4656 12.5698
20 1 16.084 11.3104 11.6305
112 3 13.9989 14.2127 0.896762
156 3 15.3235 13.4588 3.02623
184 3 12.7118 13.4578 2.98958
208 3 13.9911 14.2656 5.25281
252 3 15.3112 13.4496 7.33825
280 3 12.6945 13.4401 7.34272
304 3 14.0224 14.234 9.44751
26 1 12.3985 12.8481 12.2787
116 3 15.4114 16.6661 0.889237
188 3 14.0162 15.7739 3.08128
143 3 12.7211 16.6551 0.89253
167 3 12.7186 18.0751 3.02079
191 3 15.3739 18.0664 2.96426
212 3 15.3903 16.543 5.16148
239 3 12.6221 16.6747 5.18868
284 3 13.996 15.7341 7.33866
288 3 15.3105 18.1181 7.34298
263 3 12.6188 18.1772 7.46562
308 3 15.3585 16.4821 9.38844
335 3 12.607 16.5626 9.49093
1 1 14.0464 17.6286 11.9404
94 2 13.7065 16.2935 12.6995
3 1 13.3807 15.8197 11.8987
59 1 14.5484 15.9328 13.0091
