ITEM: TIMESTEP
100000000
ITEM: NUMBER OF ATOMS
336
ITEM: BOX BOUNDS pp pp pp
0.0000000000000000e+00 1.6167135238600000e+01
0.0000000000000000e+00 1.8668199539200000e+01
0.0000000000000000e+00 2.5747400283800001e+01
ITEM: ATOMS id type x y z
145 3 3.18865 1.83875 3.11376
138 3 3.24386 0.258807 1.06722
169 3 0.489139 1.78445 3.09532
97 3 0.62394 0.190026 1.02122
117 3 1.95395 2.68641 0.996591
234 3 3.24818 0.239781 5.26121
193 3 0.616173 0.21573 5.14499
213 3 1.88586 2.61142 5.2757
267 3 0.515697 1.82378 7.39179
241 3 3.28934 1.81401 7.37901
290 3 0.538656 0.249967 9.44002
309 3 1.97586 2.58628 9.43422
330 3 3.33182 0.333658 9.4867
8 1 1.16333 1.14442 11.6463
73 2 1.94264 2.55388 11.6858
85 2 0.675427 0.220277 11.7238
55 1 2.97701 2.50367 12.0614
101 3 3.32387 4.93968 0.964885
173 3 1.84375 4.06253 3.14477
129 3 0.63511 4.85334 0.914973
197 3 3.26017 4.9541 5.08849
225 3 0.491847 4.92307 5.15794
269 3 1.86941 4.22408 7.26987
321 3 0.503485 4.99443 9.40377
293 3 3.27162 4.99652 9.41264
56 1 1.73473 3.37091 11.8501
92 2 0.600526 4.91559 11.6321
63 1 0.920053 5.75417 11.9946
133 3 2.06821 7.31034 1.03573
177 3 3.27027 6.44397 3.09464
157 3 0.512659 6.48094 2.99775
161 3 1.8685 8.852 3.05429
229 3 1.86872 7.26713 5.14928
257 3 1.918 8.77324 7.34647
273 3 3.25696 6.44497 7.38901
255 3 0.546118 6.53726 7.41796
325 3 1.97398 7.18541 9.47464
37 1 2.44087 7.23463 12.7462
69 2 1.46018 7.30756 12.4987
13 1 1.5381 7.86942 11.66
84 2 3.97174 6.50105 13.4858
146 3 3.19603 11.1911 3.03858
137 3 3.20105 9.59409 0.981065
170 3 0.578457 11.1479 3.09929
118 3 1.86684 11.9697 1.00859
98 3 0.565654 9.6022 0.941201
233 3 3.22831 9.52456 5.11715
194 3 0.522631 9.60396 5.23646
214 3 1.95754 11.908 5.18674
268 3 0.60313 11.1145 7.40909
242 3 3.28003 11.1366 7.35946
329 3 3.37647 9.67566 9.43097
289 3 0.663559 9.43353 9.45426
310 3 1.98987 11.8623 9.4352
10 1 1.59763 12.276 13.2497
102 3 3.27529 14.2341 0.864237
174 3 1.92852 13.5043 3.10567
130 3 0.552922 14.1086 0.957072
198 3 3.29701 14.2117 5.18537
226 3 0.624502 14.2307 5.22338
270 3 1.87764 13.3988 7.38092
294 3 3.0653 14.1664 9.40444
322 3 0.499171 14.1991 9.4586
24 1 1.29315 14.1714 13.4552
78 2 2.46515 12.6078 12.9136
90 2 0.507767 14.758 12.8711
62 1 0.561255 14.287 11.8465
40 1 2.64836 12.4868 11.7099
134 3 1.87632 16.5398 0.915023
178 3 3.2784 15.8368 3.03468
158 3 0.523568 15.8149 3.08219
162 3 1.93079 18.064 3.04863
230 3 1.88391 16.587 5.20472
256 3 0.585994 15.76 7.38349
274 3 3.19002 15.8119 7.36185
258 3 1.94001 18.1383 7.45283
326 3 1.94777 16.5482 9.57703
67 2 2.03055 16.6917 11.7248
32 1 1.30425 18.0957 11.7188
25 1 3.10066 16.7427 11.7256
57 1 1.57291 15.7166 12.0851
186 3 5.94525 1.73949 3.16616
110 3 5.96163 0.353387 1.08844
114 3 7.28269 2.67508 0.983131
141 3 4.72571 2.58039 0.911499
210 3 7.28966 2.60127 5.28471
206 3 6.04628 0.229222 5.16465
237 3 4.59549 2.62721 5.23341
282 3 6.05445 1.76692 7.39339
302 3 6.03233 0.254351 9.48901
306 3 7.26565 2.67921 9.47124
333 3 4.67969 2.69054 9.42349
41 1 5.90751 1.19282 11.8695
27 1 7.10675 0.115127 11.7591
89 2 6.15756 0.288708 11.7285
87 2 4.82628 2.96157 12.2344
121 3 5.93178 4.89479 0.913066
189 3 7.30782 4.20502 3.04388
165 3 4.55873 4.12356 2.9887
217 3 5.96228 4.84065 5.19406
286 3 7.23867 4.09426 7.32183
261 3 4.48506 4.12965 7.34961
313 3 5.86334 4.929 9.39266
48 1 5.09679 3.6135 12.9668
96 2 6.87097 5.72644 12.811
44 1 6.51969 5.89079 11.826
54 1 4.84293 3.56874 11.4507
58 1 4.50379 6.21541 12.7272
125 3 7.37899 7.3584 0.971493
149 3 5.95041 6.42376 2.99344
105 3 4.59844 7.26578 0.968026
181 3 4.63889 8.84162 3.03409
153 3 7.31238 8.72862 2.987
201 3 4.55941 7.26888 5.18862
221 3 7.31632 7.20153 5.22577
245 3 5.94411 6.54769 7.24765
277 3 4.60301 8.88508 7.25914
249 3 7.32537 8.74296 7.37502
317 3 7.21645 7.29635 9.44525
297 3 4.55617 7.30439 9.33255
50 1 6.10623 9.03555 12.348
51 1 4.30754 7.43244 13.6318
95 2 5.9989 8.85891 13.2941
39 1 6.61944 6.51957 13.3133
185 3 5.89557 11.1822 3.0404
109 3 5.85914 9.6886 0.990776
113 3 7.22453 11.9225 0.982565
142 3 4.54254 11.95 1.02044
205 3 5.98173 9.45001 5.16714
238 3 4.57004 11.9793 5.1763
209 3 7.22887 11.9104 5.26299
281 3 5.91201 11.2043 7.29532
301 3 5.97455 9.65411 9.42929
305 3 7.25176 11.8976 9.50112
334 3 4.629 11.9202 9.37005
68 2 5.29552 11.4503 13.0259
35 1 4.87082 11.4991 12.1088
46 1 5.78098 9.79958 13.4522
21 1 4.71129 11.9036 13.6801
122 3 5.93551 14.3169 0.855712
190 3 7.33799 13.5674 3.09365
166 3 4.6412 13.5534 3.10973
218 3 5.83635 14.255 5.17289
285 3 7.18693 13.5173 7.36418
262 3 4.53237 13.5153 7.41988
314 3 5.9049 14.2211 9.51378
7 1 5.86868 13.5045 12.3503
71 2 5.97999 14.4827 11.9779
49 1 6.86636 14.8609 12.2906
126 3 7.36719 16.5839 0.953629
150 3 5.89107 15.8696 3.0188
106 3 4.59911 16.6728 1.05002
154 3 7.35412 18.0926 3.13422
182 3 4.61531 18.2175 3.13998
222 3 7.21734 16.5013 5.22936
202 3 4.64617 16.6928 5.24638
246 3 5.90793 15.8205 7.31651
278 3 4.63315 18.1594 7.38533
250 3 7.30438 18.0995 7.42281
298 3 4.55303 16.6891 9.45942
318 3 7.18725 16.5375 9.42211
88 2 4.65898 16.6347 11.9164
31 1 5.16953 17.4205 12.1612
28 1 5.31264 15.807 12.2828
179 3 11.2926 1.75462 3.0336
103 3 11.333 0.237832 0.97921
159 3 8.58397 1.82678 3.07347
131 3 8.64369 0.241109 0.991742
135 3 9.96246 2.59825 0.90871
199 3 11.2805 0.306852 5.27384
227 3 8.62937 0.155378 5.18349
231 3 9.97358 2.56989 5.16352
254 3 8.63278 1.87546 7.34329
275 3 11.3274 1.80678 7.45213
327 3 9.95399 2.54166 9.47818
323 3 8.75309 0.228151 9.53502
295 3 11.3146 0.265582 9.48441
76 2 8.67691 0.571363 11.8426
29 1 9.39827 1.24135 12.0789
70 2 10.0577 2.45558 11.9154
4 1 11.2678 2.57657 11.9635
139 3 11.3406 5.02153 0.921982
163 3 9.96406 4.04297 2.92782
100 3 8.67959 4.92376 0.94063
235 3 11.3175 4.87823 5.07422
196 3 8.63079 4.86899 5.18433
259 3 9.94567 4.20384 7.39173
331 3 11.2789 5.0368 9.46417
291 3 8.63613 4.93258 9.42547
61 1 8.67009 5.12434 12.8348
64 1 9.88994 3.38117 12.4535
86 2 9.57906 4.88046 12.964
42 1 9.97264 5.47381 12.398
120 3 10.0014 7.22494 0.929726
148 3 11.2945 6.37698 3.01516
172 3 8.63025 6.45291 3.08391
176 3 9.95093 8.81978 3.09534
216 3 9.95335 7.28398 5.1837
265 3 8.54191 6.49108 7.3224
244 3 11.3077 6.40022 7.26597
272 3 9.99778 8.83512 7.40712
312 3 9.85827 7.16644 9.42088
33 1 8.6121 7.91288 10.6574
23 1 11.747 8.26357 11.985
180 3 11.2282 11.1111 3.04739
104 3 11.3092 9.62395 0.89713
160 3 8.59525 11.1341 3.04977
132 3 8.55584 9.66071 0.904315
136 3 9.9259 11.8953 1.0078
200 3 11.3147 9.60559 5.15441
228 3 8.55767 9.57054 5.24582
232 3 9.95157 11.8822 5.23161
276 3 11.3711 11.221 7.35375
253 3 8.55073 11.0933 7.43763
296 3 11.331 9.5999 9.53585
324 3 8.65341 9.54935 9.5055
328 3 9.91931 11.9013 9.51621
72 2 11.2943 9.57031 11.811
77 2 8.78763 10.4882 12.7203
53 1 10.4341 9.98701 12.2302
11 1 11.9733 10.3925 11.9812
60 1 8.13825 10.0151 13.3362
6 1 8.47348 10.6432 11.857
140 3 11.3104 14.2004 0.985833
164 3 9.98533 13.4372 3.07483
99 3 8.63491 14.2858 0.976024
236 3 11.364 14.2271 5.12499
195 3 8.63126 14.3037 5.20976
260 3 9.97587 13.4544 7.33326
332 3 11.3183 14.2095 9.40541
292 3 8.67272 14.2237 9.33684
36 1 11.9171 15.0338 12.8452
93 2 11.5495 13.9376 12.9048
16 1 10.4989 13.5536 12.7024
66 2 8.96627 13.3087 12.8361
18 1 8.77359 13.4237 11.8735
34 1 8.76621 12.4757 13.1399
119 3 10.0292 16.6272 1.03186
147 3 11.3728 15.8827 2.95553
171 3 8.69627 15.8032 3.11884
175 3 10.004 18.1935 3.0431
215 3 10.0038 16.6046 5.25464
266 3 8.616 15.7862 7.30167
243 3 11.3478 15.8083 7.40084
271 3 9.97646 18.2105 7.35759
311 3 9.9314 16.6098 9.46861
52 1 9.13939 18.5215 12.2832
30 1 11.0096 17.2991 11.8188
82 2 10.8506 16.8725 12.6697
14 1 11.5727 17.1813 13.2541
19 1 9.00928 15.8282 12.7149
45 1 8.27064 16.5897 11.7859
74 2 8.09063 16.1981 12.5106
151 3 13.9037 1.77595 3.06218
107 3 12.7434 2.48714 0.869647
127 3 15.4331 2.60661 1.08252
123 3 14.1425 0.181359 0.941196
219 3 13.9988 0.212364 5.24039
223 3 15.3677 2.55172 5.09511
203 3 12.6738 2.631 5.20492
247 3 14.0601 1.79938 7.43155
315 3 13.9184 0.10489 9.45118
299 3 12.7072 2.5267 9.51915
319 3 15.3546 2.64876 9.46151
75 2 12.6075 2.62419 11.9163
5 1 13.0523 1.67923 12.2283
65 2 14.2676 0.0486995 11.7178
17 1 15.1429 0.37375 11.8177
111 3 14.0911 4.76405 0.88432
155 3 15.3608 4.12562 3.05794
183 3 12.6656 4.09785 3.00372
207 3 14.0022 4.85471 5.09903
279 3 12.6533 4.09243 7.38722
251 3 15.4166 4.14875 7.4236
303 3 14.0201 4.95371 9.47835
91 2 14.123 4.6158 11.7071
2 1 15.7332 4.63544 11.8351
12 1 13.6837 5.25871 12.1105
43 1 13.3902 3.49831 11.763
115 3 15.4317 7.18373 0.856729
187 3 14.0488 6.37392 2.85318
144 3 12.6149 7.28201 0.924404
192 3 15.3534 8.72693 3.00206
168 3 12.6445 8.77201 3.04731
211 3 15.4435 7.27524 5.14415
240 3 12.6421 7.15843 5.13514
287 3 15.3629 8.78704 7.31879
264 3 12.6431 8.76318 7.36979
283 3 13.9871 6.54319 7.41348
307 3 15.3493 7.33874 9.39418
336 3 12.6187 7.22536 9.40641
22 1 13.2316 7.39573 12.6049
79 2 12.3107 7.20801 12.2309
38 1 15.1904 8.20242 12.0832
83 2 14.7413 8.30329 12.9808
47 1 15.5779 8.09359 13.5763
152 3 13.9394 11.0845 3.11867
128 3 15.3101 11.8828 1.04212
108 3 12.6411 11.7838 0.971249
124 3 13.8544 9.61775 1.02035
220 3 13.96 9.52674 5.19605
224 3 15.4232 11.8461 5.19254
204 3 12.5568 11.9297 5.163
248 3 13.9561 11.1061 7.3212
316 3 14.0905 9.51136 9.38945
320 3 15.4 11.8594 9.39154
300 3 12.7196 11.8106 9.51304
81 2 12.7918 11.9324 11.9288
9 1 13.763 12.077 12.1069
15 1 15.3634 10.6165 12.901
80 2 15.6686 11.4383 12.6042
20 1 15.9036 11.2002 11.6114
112 3 13.9889 14.2062 0.901069
156 3 15.3468 13.4448 3.02961
184 3 12.7083 13.4665 2.98425
208 3 13.9772 14.2778 5.24888
252 3 15.3048 13.451 7.33376
280 3 12.6903 13.4425 7.33303
304 3 14.0129 14.2362 9.44574
26 1 12.3076 12.6582 12.3516
116 3 15.4011 16.6496 0.899905
188 3 14.0123 15.7868 3.08591
143 3 12.7139 16.6499 0.909035
167 3 12.7248 18.1118 3.03003
191 3 15.4009 18.0694 2.98126
212 3 15.3773 16.538 5.17232
239 3 12.629 16.6791 5.20082
284 3 14.0033 15.7401 7.32517
288 3 15.2933 18.1105 7.35457
263 3 12.6101 18.1733 7.46013
335 3 12.5792 16.5434 9.47665
308 3 15.3447 16.4827 9.39683
1 1 13.8406 17.8686 12.0327
94 2 13.7076 16.2955 12.6959
3 1 13.3795 15.7953 11.9003
59 1 14.4858 15.8022 12.9478
