ITEM: TIMESTEP
100000000
ITEM: NUMBER OF ATOMS
336
ITEM: BOX BOUNDS pp pp pp
0.0000000000000000e+00 1.6167135238600000e+01
0.0000000000000000e+00 1.8668199539200000e+01
0.0000000000000000e+00 2.5747400283800001e+01
ITEM: ATOMS id type x y z
145 3 3.18731 1.84598 3.10513
138 3 3.26229 0.240177 1.06637
169 3 0.503183 1.78664 3.09701
97 3 0.626898 0.190501 1.00389
117 3 1.96645 2.69015 0.988396
234 3 3.24204 0.229915 5.25801
193 3 0.601771 0.232449 5.13686
213 3 1.88545 2.59918 5.27366
241 3 3.28494 1.79625 7.38539
267 3 0.518909 1.82458 7.39287
330 3 3.34507 0.345253 9.47334
290 3 0.549649 0.22765 9.43255
309 3 1.97541 2.59601 9.43347
8 1 1.17487 1.23702 11.7077
73 2 1.92224 2.54111 11.6938
85 2 0.64947 0.254633 11.7041
55 1 2.94177 2.65388 12.0272
101 3 3.32946 4.92213 0.967833
173 3 1.85239 4.07783 3.14124
129 3 0.636135 4.84239 0.915774
197 3 3.26621 4.96485 5.09545
225 3 0.483372 4.90867 5.15012
269 3 1.85847 4.22726 7.26903
321 3 0.513415 5.00221 9.39495
293 3 3.26448 4.97942 9.4097
56 1 1.66152 3.23184 12.1388
92 2 0.590978 4.89764 11.6506
63 1 0.803706 5.92472 11.9009
133 3 2.06194 7.30093 1.03431
177 3 3.26873 6.43672 3.09744
157 3 0.500172 6.48769 2.9889
161 3 1.86443 8.8347 3.03137
229 3 1.87222 7.25776 5.15194
257 3 1.91321 8.76636 7.32433
273 3 3.25393 6.45383 7.39332
255 3 0.550693 6.54428 7.40656
325 3 1.97157 7.18419 9.48584
37 1 2.42633 7.03442 12.8309
13 1 1.61508 8.03527 11.5492
69 2 1.43458 7.34464 12.4835
84 2 4.02438 6.49016 13.4437
146 3 3.20496 11.1978 3.04641
170 3 0.584861 11.1458 3.09057
118 3 1.85952 11.9633 1.01752
98 3 0.564654 9.58701 0.930834
137 3 3.17476 9.58926 0.988947
233 3 3.22407 9.52702 5.10396
194 3 0.515253 9.60221 5.2518
214 3 1.97152 11.9022 5.1854
242 3 3.27807 11.1436 7.36894
268 3 0.601134 11.1016 7.41951
329 3 3.38453 9.66984 9.42925
289 3 0.648719 9.43495 9.46475
310 3 1.992 11.8609 9.44311
10 1 1.68363 12.2457 13.186
102 3 3.26393 14.2337 0.86336
174 3 1.93264 13.5123 3.09647
130 3 0.550078 14.1182 0.951093
198 3 3.28594 14.2076 5.1787
226 3 0.61449 14.2187 5.25092
270 3 1.86976 13.4089 7.36996
294 3 3.08994 14.1693 9.40081
322 3 0.497082 14.1985 9.46803
24 1 1.30711 14.2591 13.4312
78 2 2.47716 12.597 12.899
90 2 0.505988 14.8135 12.8997
40 1 2.56816 12.5653 11.655
62 1 0.433982 14.4829 11.9648
134 3 1.87532 16.5358 0.898898
178 3 3.29884 15.8445 3.02792
158 3 0.515249 15.8146 3.10478
162 3 1.94324 18.0617 3.0551
230 3 1.88194 16.5977 5.17682
256 3 0.591289 15.7598 7.3821
274 3 3.18899 15.8133 7.3567
258 3 1.94106 18.1309 7.45049
326 3 1.93643 16.5446 9.58553
32 1 1.31381 18.1147 11.9276
67 2 2.02283 16.6887 11.7459
25 1 2.95367 16.7569 11.7461
57 1 1.59388 15.7258 12.0536
186 3 5.95235 1.73345 3.17852
110 3 5.96989 0.352733 1.1054
141 3 4.71037 2.57607 0.920337
114 3 7.27826 2.66479 0.977709
206 3 6.04832 0.226528 5.16485
210 3 7.27538 2.60329 5.29472
237 3 4.60399 2.62034 5.22505
282 3 6.06284 1.7645 7.40127
302 3 6.02453 0.249335 9.48311
306 3 7.26538 2.69093 9.46764
333 3 4.68665 2.69686 9.42255
41 1 5.84686 1.28504 11.8274
89 2 6.15003 0.264014 11.7045
27 1 7.16681 0.179116 11.7768
87 2 4.81826 2.98374 12.2501
121 3 5.93889 4.90581 0.912982
189 3 7.31401 4.18731 3.0441
165 3 4.56418 4.12818 2.99179
217 3 5.95967 4.84587 5.18764
286 3 7.24172 4.08374 7.33002
261 3 4.4894 4.12281 7.35951
313 3 5.85531 4.93378 9.39285
96 2 6.86608 5.70728 12.8344
48 1 5.11667 3.62251 12.9692
44 1 6.45463 5.93393 11.8149
54 1 4.83436 3.53972 11.4715
58 1 4.48105 6.14566 12.6339
125 3 7.39017 7.3584 0.969191
149 3 5.94748 6.42826 3.00852
105 3 4.5976 7.26553 0.987924
181 3 4.63675 8.84007 3.04215
153 3 7.30672 8.73041 2.97929
221 3 7.29249 7.19693 5.2159
201 3 4.56535 7.24423 5.20108
245 3 5.93581 6.54598 7.24813
277 3 4.59972 8.89814 7.26152
249 3 7.32486 8.74542 7.37838
317 3 7.21726 7.27651 9.4575
297 3 4.56891 7.30461 9.33632
50 1 6.24376 8.85898 12.357
39 1 6.67919 6.59092 13.1993
95 2 6.01037 8.855 13.2444
51 1 4.30816 7.33816 13.7675
185 3 5.88687 11.1851 3.03933
113 3 7.24169 11.9194 0.967673
142 3 4.5541 11.9494 1.02121
109 3 5.85044 9.69585 0.988977
205 3 5.98685 9.47182 5.1632
238 3 4.57453 11.9772 5.17599
209 3 7.22197 11.9367 5.2502
281 3 5.91482 11.1924 7.31217
301 3 5.98275 9.64551 9.43971
334 3 4.62641 11.9029 9.37441
305 3 7.24592 11.8932 9.49952
68 2 5.30251 11.4644 13.0384
35 1 4.88765 11.5089 12.1081
46 1 5.57973 9.76672 13.6407
21 1 4.52923 11.8155 13.615
122 3 5.92642 14.3292 0.867063
190 3 7.33538 13.5739 3.10285
166 3 4.63385 13.5625 3.10587
218 3 5.83693 14.2663 5.17063
285 3 7.20652 13.5248 7.36942
262 3 4.54154 13.5206 7.4158
314 3 5.91137 14.2079 9.52464
7 1 5.83517 13.5904 12.3685
71 2 5.98502 14.4938 11.9997
49 1 6.92874 14.8643 12.3214
126 3 7.35679 16.5884 0.94931
150 3 5.90533 15.874 3.02068
106 3 4.60501 16.687 1.03509
154 3 7.34498 18.1064 3.12593
182 3 4.60866 18.2267 3.13408
222 3 7.20466 16.4903 5.23556
202 3 4.63985 16.7071 5.23809
246 3 5.90463 15.8145 7.31615
278 3 4.63271 18.1501 7.38207
250 3 7.30553 18.093 7.42911
298 3 4.55607 16.6961 9.46114
318 3 7.19572 16.5562 9.42985
88 2 4.71027 16.6422 11.9819
31 1 5.14173 17.4726 12.0517
28 1 5.31247 15.8664 12.0678
179 3 11.3012 1.76546 3.02751
103 3 11.3417 0.232602 0.974245
159 3 8.58335 1.81901 3.07438
131 3 8.6286 0.256478 0.985465
135 3 9.95955 2.59451 0.919002
199 3 11.2759 0.322549 5.27812
227 3 8.63211 0.168024 5.18959
231 3 10.0044 2.56446 5.17451
254 3 8.66266 1.8612 7.34401
275 3 11.3111 1.80795 7.43908
327 3 9.94988 2.54052 9.47321
323 3 8.76436 0.207755 9.52782
295 3 11.3187 0.279525 9.48065
76 2 8.72203 0.570761 11.8623
29 1 9.52919 1.25655 12.1392
70 2 10.0597 2.44762 11.918
4 1 11.3036 2.57526 12.0077
139 3 11.3416 5.00864 0.915382
163 3 9.96034 4.02831 2.93797
100 3 8.66812 4.91695 0.941408
235 3 11.31 4.86206 5.06766
196 3 8.637 4.86938 5.19129
259 3 9.93727 4.20178 7.38339
331 3 11.2722 5.03046 9.45364
291 3 8.62555 4.93586 9.43267
61 1 8.59505 5.20134 12.948
64 1 9.88452 3.368 12.3769
86 2 9.61261 4.89237 12.98
42 1 9.93538 5.53904 12.4676
120 3 9.99933 7.24251 0.930784
148 3 11.2963 6.38717 3.02315
172 3 8.63727 6.45293 3.07706
176 3 9.96041 8.81233 3.09708
216 3 9.9549 7.28689 5.19301
265 3 8.53733 6.47839 7.3279
244 3 11.3169 6.41344 7.27708
272 3 10.0075 8.84079 7.39794
312 3 9.85573 7.15948 9.42165
33 1 8.6604 7.92961 10.6849
23 1 11.9511 8.14545 11.9654
180 3 11.227 11.1296 3.04889
104 3 11.3069 9.60477 0.901322
160 3 8.60654 11.1267 3.05671
132 3 8.56333 9.65205 0.899694
136 3 9.91877 11.8958 1.01554
200 3 11.3089 9.60233 5.14133
228 3 8.55506 9.5552 5.22247
232 3 9.95004 11.8787 5.2315
253 3 8.56089 11.1054 7.43466
276 3 11.362 11.2033 7.36172
296 3 11.3417 9.60432 9.52936
328 3 9.92858 11.9096 9.50879
324 3 8.64786 9.53761 9.52239
72 2 11.2576 9.57723 11.8028
6 1 8.53792 10.3537 11.7052
77 2 8.79992 10.4529 12.7252
53 1 10.5136 9.84072 12.2486
34 1 8.80894 12.4117 13.1472
11 1 12.067 10.2829 11.9871
60 1 8.16827 9.93571 13.3482
140 3 11.3118 14.2069 0.988625
164 3 9.97648 13.4429 3.07502
99 3 8.64591 14.2967 0.980115
236 3 11.3626 14.2303 5.11281
195 3 8.64192 14.2927 5.19334
260 3 9.98341 13.4555 7.33063
332 3 11.3074 14.2032 9.40479
292 3 8.68034 14.201 9.33025
93 2 11.5459 13.9275 12.9308
36 1 11.8028 14.8776 12.9612
16 1 10.4644 13.6607 12.7121
66 2 8.99987 13.2871 12.8267
18 1 8.87604 13.3862 11.8166
119 3 10.0283 16.6182 1.01077
147 3 11.3575 15.8808 2.94588
171 3 8.68667 15.8024 3.10701
175 3 10.0197 18.1861 3.03053
215 3 10.008 16.5978 5.23479
266 3 8.61644 15.7822 7.3195
243 3 11.3524 15.7965 7.39303
271 3 9.9681 18.2229 7.36744
311 3 9.93128 16.613 9.45854
14 1 11.6274 17.0682 13.1842
82 2 10.8427 16.89 12.7073
30 1 10.97 17.192 11.7554
52 1 9.17475 18.5366 12.3153
19 1 9.02339 15.9171 12.7366
45 1 8.24391 16.7121 11.6486
74 2 8.08555 16.2319 12.533
151 3 13.9063 1.77518 3.06174
107 3 12.7578 2.47468 0.87494
127 3 15.4252 2.60922 1.06704
123 3 14.1365 0.187253 0.941801
219 3 14.0005 0.222634 5.24754
223 3 15.3674 2.55067 5.11424
203 3 12.6727 2.62106 5.21108
247 3 14.056 1.79128 7.40983
315 3 13.9106 0.0898275 9.45954
299 3 12.7112 2.53457 9.50761
319 3 15.3449 2.65036 9.46802
5 1 13.0417 1.64884 12.0616
75 2 12.629 2.6151 11.9028
65 2 14.205 0.0545041 11.696
17 1 15.0957 0.309135 11.8485
111 3 14.0921 4.78128 0.876043
155 3 15.3858 4.14543 3.05872
183 3 12.6582 4.09975 2.9997
207 3 14.0145 4.8661 5.11469
279 3 12.6506 4.08721 7.37931
251 3 15.4253 4.15218 7.4192
303 3 14.0137 4.94939 9.46647
91 2 14.1067 4.60724 11.6888
12 1 13.7475 5.51062 12.0472
2 1 15.8521 4.68021 11.8614
43 1 13.4594 3.60042 11.8384
115 3 15.4284 7.16829 0.857149
187 3 14.0559 6.3899 2.86111
144 3 12.6215 7.30418 0.925046
192 3 15.3531 8.73616 2.99597
168 3 12.6422 8.77267 3.03625
211 3 15.4451 7.29195 5.13171
240 3 12.6415 7.16323 5.13714
287 3 15.35 8.7763 7.31778
264 3 12.6444 8.76886 7.38119
283 3 13.9908 6.52807 7.40379
307 3 15.3377 7.33689 9.39463
336 3 12.6175 7.211 9.43096
22 1 13.1335 7.50252 12.5633
79 2 12.3149 7.20303 12.1969
47 1 15.5956 8.13362 13.5593
83 2 14.7501 8.34778 12.9459
38 1 15.2359 8.20122 11.9856
152 3 13.9349 11.0799 3.10164
124 3 13.8622 9.62506 1.0223
108 3 12.6261 11.7901 0.972585
128 3 15.3255 11.8872 1.05392
220 3 13.967 9.51493 5.18483
204 3 12.5588 11.94 5.17785
224 3 15.4178 11.8569 5.17954
248 3 13.9629 11.0912 7.30868
316 3 14.0927 9.51036 9.40014
320 3 15.3972 11.8641 9.37683
300 3 12.7039 11.7987 9.50853
81 2 12.8018 11.9401 11.9487
9 1 13.6828 11.9697 12.1332
15 1 15.4234 10.5246 12.8467
80 2 15.6657 11.4634 12.5703
20 1 16.0549 11.2706 11.6763
112 3 14.0092 14.2098 0.912255
156 3 15.3376 13.4545 3.02143
184 3 12.7072 13.4605 2.99724
208 3 13.9821 14.2658 5.24965
252 3 15.3138 13.4552 7.33727
280 3 12.696 13.4567 7.34046
304 3 14.0071 14.2419 9.43628
26 1 12.2498 12.7556 12.3054
116 3 15.4033 16.6566 0.905155
188 3 14.0058 15.7845 3.07744
143 3 12.7164 16.655 0.89446
167 3 12.7257 18.1004 3.04319
191 3 15.3744 18.0784 2.97963
212 3 15.3781 16.53 5.17129
239 3 12.6215 16.6802 5.19572
284 3 13.9952 15.7421 7.327
288 3 15.2887 18.122 7.35115
263 3 12.605 18.1735 7.4682
308 3 15.3512 16.4926 9.39242
335 3 12.5849 16.5511 9.48579
1 1 13.9379 17.8431 12.1175
94 2 13.6896 16.2882 12.6921
3 1 13.419 15.7017 11.9389
59 1 14.5604 15.9946 13.0126
