ITEM: TIMESTEP
100000000
ITEM: NUMBER OF ATOMS
336
ITEM: BOX BOUNDS pp pp pp
0.0000000000000000e+00 1.6167135238600000e+01
0.0000000000000000e+00 1.8668199539200000e+01
0.0000000000000000e+00 2.5747400283800001e+01
ITEM: ATOMS id type x y z
145 3 3.18354 1.80605 3.10492
138 3 3.26181 0.269137 1.08
169 3 0.50104 1.81066 3.12275
117 3 1.93982 2.68169 1.00878
97 3 0.611617 0.197767 0.983487
234 3 3.24428 0.222769 5.27714
193 3 0.599251 0.219796 5.12106
213 3 1.8866 2.60957 5.27068
267 3 0.537518 1.82417 7.38266
241 3 3.29382 1.79379 7.39351
309 3 1.97397 2.59572 9.42727
330 3 3.34403 0.321747 9.4838
290 3 0.53847 0.272853 9.44383
8 1 1.24864 1.01629 11.5743
73 2 1.98628 2.49602 11.706
85 2 0.641421 0.274318 11.7129
55 1 2.92273 2.46544 11.7152
101 3 3.30882 4.93239 0.989662
173 3 1.84568 4.08458 3.1489
129 3 0.630467 4.87328 0.909302
197 3 3.28532 4.97356 5.06826
225 3 0.498466 4.90313 5.14009
269 3 1.87089 4.24073 7.29595
293 3 3.27114 4.99322 9.39884
321 3 0.495202 5.00201 9.39699
63 1 1.02039 5.81536 11.85
92 2 0.582312 4.90125 11.5769
56 1 1.4813 3.18696 11.8059
133 3 2.03652 7.31001 1.02919
177 3 3.25326 6.46879 3.08884
157 3 0.516484 6.4558 2.97221
161 3 1.88902 8.85827 3.06757
229 3 1.88956 7.27943 5.16219
257 3 1.91986 8.77221 7.35023
273 3 3.23355 6.48941 7.41465
255 3 0.513744 6.53404 7.3906
325 3 1.99002 7.16432 9.45847
37 1 2.34286 7.02944 12.9326
69 2 1.43028 7.31535 12.5238
13 1 1.51823 7.71109 11.5807
84 2 4.02701 6.44426 13.5199
146 3 3.2318 11.1837 3.05567
137 3 3.18763 9.57236 0.980207
170 3 0.575598 11.1281 3.0594
118 3 1.87679 11.9843 1.01783
98 3 0.563061 9.58588 0.929507
233 3 3.23347 9.5742 5.10704
194 3 0.499282 9.60692 5.23639
214 3 1.93147 11.8756 5.18491
242 3 3.27594 11.1429 7.32984
268 3 0.601763 11.0894 7.41656
329 3 3.39863 9.67741 9.42382
310 3 1.98703 11.8485 9.44263
289 3 0.635397 9.42222 9.46783
10 1 1.59086 12.2793 13.2797
102 3 3.27071 14.2165 0.858553
174 3 1.93463 13.5125 3.12257
130 3 0.590035 14.0924 0.957673
198 3 3.27748 14.1926 5.19775
226 3 0.622588 14.2299 5.25001
270 3 1.89505 13.4022 7.4084
294 3 3.05696 14.1897 9.42215
322 3 0.517484 14.189 9.47821
24 1 1.04854 14.1773 13.6195
78 2 2.51182 12.6034 12.9175
90 2 0.538008 14.7807 12.9948
40 1 2.53534 12.4829 11.8285
62 1 0.533612 14.3124 12.0734
134 3 1.87656 16.5194 0.928265
178 3 3.30956 15.8129 3.04632
158 3 0.506552 15.8085 3.08046
162 3 1.91231 18.0428 3.0377
230 3 1.86603 16.5905 5.20112
274 3 3.21191 15.8006 7.37306
256 3 0.599543 15.7232 7.37541
258 3 1.91869 18.1714 7.43949
326 3 1.95625 16.5319 9.56806
67 2 2.02354 16.6942 11.7492
25 1 2.96965 16.7691 11.6896
32 1 1.13341 18.1451 11.6109
57 1 1.59506 15.8256 12.0971
186 3 5.95525 1.73602 3.16487
141 3 4.74138 2.55852 0.941742
114 3 7.27169 2.6369 0.957274
110 3 5.95735 0.340879 1.06109
210 3 7.30774 2.58568 5.2976
206 3 6.05684 0.211611 5.17262
237 3 4.56121 2.62903 5.20784
282 3 6.05757 1.7914 7.36768
302 3 6.02703 0.275125 9.45226
306 3 7.27188 2.66018 9.45923
333 3 4.65125 2.66308 9.42531
41 1 6.01043 1.27668 11.7812
89 2 6.09924 0.345177 11.7625
27 1 7.28134 0.218111 12.0197
87 2 4.84958 2.99686 12.2584
121 3 5.92852 4.90005 0.912076
189 3 7.31209 4.21184 3.05156
165 3 4.57522 4.10531 3.00301
217 3 5.97284 4.85174 5.17763
261 3 4.475 4.1118 7.33549
286 3 7.24009 4.08104 7.36261
313 3 5.87076 4.92524 9.38954
54 1 5.13742 3.35932 11.267
96 2 6.90086 5.72579 12.8087
48 1 4.95896 3.7065 12.864
44 1 6.74293 5.91366 11.849
125 3 7.39345 7.36292 0.948665
149 3 5.95678 6.40266 3.01427
105 3 4.59553 7.28998 0.987989
153 3 7.3317 8.72438 2.98678
181 3 4.63693 8.84307 3.03721
221 3 7.30644 7.21427 5.21376
201 3 4.56022 7.22493 5.1835
245 3 5.9471 6.53859 7.24774
277 3 4.6155 8.87962 7.29173
249 3 7.33817 8.72156 7.38944
317 3 7.20855 7.2836 9.47286
297 3 4.54165 7.3063 9.36042
39 1 6.2696 6.37001 13.3001
95 2 6.00922 8.89247 13.3595
50 1 5.93659 8.96353 12.537
51 1 4.59866 7.26962 13.7911
58 1 4.52674 6.29441 12.6595
185 3 5.87977 11.1936 3.05717
113 3 7.23002 11.9156 0.973607
142 3 4.55203 11.9346 0.996122
109 3 5.85382 9.73291 1.00336
205 3 6.00062 9.49262 5.18423
238 3 4.60775 11.9727 5.16898
209 3 7.24297 11.927 5.24663
281 3 5.91915 11.2138 7.3261
301 3 5.99001 9.65425 9.45451
334 3 4.62743 11.894 9.38118
305 3 7.25917 11.9026 9.50427
68 2 5.27157 11.4687 13.0302
35 1 5.07907 11.5004 12.1495
46 1 5.73536 9.87903 13.4821
21 1 4.59754 11.8706 13.5002
122 3 5.9062 14.3076 0.871658
190 3 7.33683 13.5796 3.10083
166 3 4.64085 13.5372 3.11197
218 3 5.85451 14.2595 5.18715
285 3 7.21627 13.534 7.37188
262 3 4.56238 13.5396 7.42136
314 3 5.91576 14.207 9.53008
7 1 5.93863 13.5124 12.3402
71 2 5.91728 14.494 11.9115
49 1 6.84295 14.9501 12.142
126 3 7.37108 16.5987 0.978838
150 3 5.88126 15.8601 3.00676
106 3 4.61352 16.6806 1.05895
154 3 7.36184 18.1393 3.12572
182 3 4.5926 18.2467 3.14455
222 3 7.2131 16.5153 5.2542
202 3 4.64175 16.6915 5.24836
246 3 5.88957 15.7833 7.35269
278 3 4.65327 18.1476 7.39726
250 3 7.28758 18.0743 7.39936
318 3 7.20378 16.5463 9.41892
298 3 4.59181 16.6578 9.47545
88 2 4.58791 16.6994 11.8756
31 1 5.05435 17.4915 11.9225
28 1 5.1393 15.8409 12.3736
74 2 8.03852 16.167 12.5148
179 3 11.2929 1.76803 3.03184
103 3 11.3547 0.209002 0.984097
159 3 8.57552 1.8278 3.10158
131 3 8.62222 0.267932 1.00067
135 3 9.94625 2.60698 0.935789
199 3 11.3099 0.314408 5.27192
227 3 8.62094 0.131484 5.17216
231 3 9.9461 2.59065 5.18358
254 3 8.65357 1.83398 7.34558
275 3 11.318 1.82031 7.44409
327 3 9.92403 2.5306 9.48808
323 3 8.73179 0.198323 9.51584
295 3 11.328 0.233501 9.48951
76 2 8.67686 0.527451 11.8267
29 1 9.32047 1.36085 11.9214
70 2 10.1271 2.49018 11.9759
4 1 11.0038 2.42051 11.9256
139 3 11.3407 5.01141 0.929319
163 3 9.98739 4.04646 2.92165
100 3 8.67252 4.92476 0.924118
235 3 11.3401 4.87444 5.07669
196 3 8.64577 4.85858 5.21623
259 3 9.96717 4.2077 7.38785
331 3 11.2578 5.03242 9.41894
291 3 8.63421 4.93496 9.43946
64 1 9.77809 3.42929 12.3256
61 1 8.55254 5.07956 12.8423
86 2 9.61481 4.9472 12.9803
42 1 9.98298 5.53695 12.1216
120 3 10.0271 7.24423 0.943766
148 3 11.3096 6.37796 3.03579
172 3 8.65959 6.46316 3.07613
176 3 9.95934 8.8367 3.09597
216 3 9.9783 7.25332 5.20092
244 3 11.3132 6.40037 7.2977
265 3 8.54219 6.51072 7.32287
272 3 9.99788 8.86062 7.3775
312 3 9.85943 7.15455 9.45812
33 1 8.87332 7.98796 10.6613
23 1 11.6919 7.95405 12.2875
180 3 11.2297 11.1088 3.03835
104 3 11.3103 9.6601 0.902238
160 3 8.59143 11.1251 3.07649
132 3 8.57024 9.64732 0.923574
136 3 9.94321 11.9242 0.974425
200 3 11.2939 9.62917 5.17883
228 3 8.55019 9.5703 5.21564
232 3 9.9734 11.8654 5.18464
276 3 11.3628 11.2176 7.34209
253 3 8.53705 11.1029 7.41185
324 3 8.67243 9.57306 9.49243
296 3 11.3222 9.5965 9.51097
328 3 9.94196 11.8952 9.50727
77 2 8.79401 10.5168 12.75
53 1 10.3718 9.91856 11.9584
72 2 11.3668 9.54287 11.8533
34 1 8.87573 12.3257 12.9211
6 1 8.47683 10.577 11.7509
11 1 12.0488 10.3125 11.8992
60 1 8.17448 10.03 13.1914
140 3 11.3099 14.2163 0.987346
164 3 9.97649 13.436 3.05099
99 3 8.64191 14.2801 0.978167
236 3 11.3798 14.241 5.11376
195 3 8.62031 14.2807 5.23003
260 3 9.99301 13.445 7.33254
332 3 11.311 14.2517 9.39674
292 3 8.71585 14.2111 9.37036
93 2 11.6243 13.9017 12.9193
36 1 11.7863 14.775 12.8171
16 1 10.5976 13.8108 12.9002
66 2 8.99082 13.2808 12.8206
18 1 9.17731 13.3679 11.8646
119 3 10.0443 16.602 1.01268
147 3 11.4003 15.9064 2.94993
171 3 8.67858 15.8102 3.06533
175 3 10.0019 18.1588 3.04445
215 3 10.0326 16.6341 5.23756
266 3 8.62589 15.798 7.31605
243 3 11.3437 15.8094 7.40526
271 3 10.0182 18.1964 7.37492
311 3 9.95353 16.6003 9.44694
52 1 9.27097 18.4503 12.2384
82 2 10.8714 16.7869 12.6457
30 1 11.1267 17.1238 11.7317
14 1 11.5392 16.9755 13.244
19 1 8.9768 15.8139 13.033
45 1 8.37571 16.6728 11.7266
151 3 13.9055 1.79176 3.05869
127 3 15.419 2.59706 1.07792
107 3 12.723 2.4793 0.895559
123 3 14.1075 0.179518 0.927248
219 3 14.0006 0.222221 5.2381
203 3 12.6702 2.60155 5.19358
223 3 15.3575 2.55965 5.10482
247 3 14.0762 1.78862 7.42181
299 3 12.6947 2.52653 9.48099
319 3 15.3664 2.59769 9.43717
315 3 13.9056 0.115769 9.41839
75 2 12.6931 2.63807 11.9276
5 1 13.1762 1.94596 12.4213
65 2 14.2096 0.0228144 11.7414
17 1 15.3104 0.295185 11.901
111 3 14.0872 4.7616 0.885173
155 3 15.356 4.13981 3.05562
183 3 12.6523 4.09684 2.99269
207 3 13.9886 4.84995 5.12047
279 3 12.652 4.08583 7.39899
251 3 15.4037 4.11545 7.39613
303 3 14.0083 4.93302 9.46544
12 1 13.5789 5.17456 12.2463
91 2 14.1411 4.5924 11.6954
2 1 15.8181 4.81353 11.8732
43 1 13.4395 3.43918 11.9245
115 3 15.4609 7.17024 0.85018
187 3 14.0235 6.37216 2.8544
144 3 12.618 7.3038 0.91553
168 3 12.645 8.77551 3.01547
192 3 15.3577 8.74941 3.01294
211 3 15.4518 7.26384 5.14239
240 3 12.6628 7.11655 5.13337
287 3 15.3117 8.79868 7.33692
264 3 12.6554 8.74032 7.37579
283 3 14.0091 6.52274 7.40426
336 3 12.6235 7.20523 9.41292
307 3 15.3565 7.31697 9.37684
22 1 13.2575 7.49806 12.5985
79 2 12.3618 7.16468 12.202
38 1 15.139 8.34102 12.1015
83 2 14.7415 8.34133 13.0187
47 1 15.5469 7.9256 13.4518
152 3 13.9407 11.0569 3.09564
124 3 13.8564 9.63834 1.02031
128 3 15.3037 11.8767 1.04234
108 3 12.6367 11.7749 0.95651
220 3 14.0018 9.53125 5.20611
224 3 15.4307 11.8445 5.20494
204 3 12.5794 11.9265 5.16742
248 3 13.9433 11.1372 7.32159
316 3 14.093 9.49023 9.39502
300 3 12.6892 11.8191 9.53965
320 3 15.4111 11.8508 9.42155
81 2 12.7665 11.9025 11.8923
9 1 13.845 11.8633 12.0512
15 1 15.1783 10.6331 12.8225
80 2 15.6888 11.5062 12.5693
20 1 15.9798 11.3085 11.5127
112 3 13.9975 14.176 0.913989
156 3 15.337 13.4654 3.02219
184 3 12.7085 13.4481 2.97603
208 3 13.9976 14.2317 5.25273
252 3 15.3187 13.4762 7.33433
280 3 12.6962 13.403 7.34111
304 3 13.9873 14.2618 9.43461
26 1 12.276 12.9822 12.3509
116 3 15.4036 16.6243 0.906974
188 3 14.0127 15.8024 3.08609
143 3 12.71 16.6618 0.896027
167 3 12.6995 18.1078 3.01441
191 3 15.4055 18.0931 2.93759
239 3 12.582 16.6624 5.20143
212 3 15.3932 16.5309 5.17745
284 3 13.9841 15.7347 7.32659
288 3 15.3251 18.107 7.32
263 3 12.6478 18.1396 7.45814
308 3 15.3131 16.4725 9.39244
335 3 12.5936 16.5523 9.45609
1 1 14.1713 17.7634 12.1854
94 2 13.6902 16.3894 12.6457
3 1 13.5308 15.9456 11.7378
59 1 14.4568 15.9761 12.8723
