ITEM: TIMESTEP
100000000
ITEM: NUMBER OF ATOMS
336
ITEM: BOX BOUNDS pp pp pp
0.0000000000000000e+00 1.6167135238600000e+01
0.0000000000000000e+00 1.8668199539200000e+01
0.0000000000000000e+00 2.5747400283800001e+01
ITEM: ATOMS id type x y z
145 3 3.17863 1.80235 3.11133
169 3 0.516432 1.79617 3.09332
97 3 0.618311 0.214146 0.998547
117 3 1.95337 2.70149 0.996637
138 3 3.26133 0.22742 1.07686
234 3 3.24082 0.214227 5.27443
193 3 0.601277 0.253222 5.13333
213 3 1.88673 2.61213 5.26861
241 3 3.29099 1.81176 7.39472
267 3 0.544205 1.82586 7.39696
290 3 0.545161 0.222724 9.40717
330 3 3.34344 0.344486 9.46827
309 3 1.98699 2.59816 9.42904
8 1 1.1402 1.24494 11.7435
73 2 1.91952 2.49306 11.6837
85 2 0.597713 0.213964 11.6803
55 1 2.86244 2.60378 11.9795
101 3 3.32786 4.92633 0.931338
173 3 1.85645 4.06718 3.16191
129 3 0.613928 4.84866 0.91761
197 3 3.26138 4.97278 5.11312
225 3 0.480256 4.90274 5.14246
269 3 1.87208 4.21232 7.28255
321 3 0.517371 4.99658 9.4244
293 3 3.24518 4.98682 9.41118
56 1 1.53097 3.30061 12.1974
92 2 0.588991 4.87112 11.6811
63 1 0.801881 5.89262 11.9955
133 3 2.04664 7.29623 1.04277
177 3 3.27956 6.44161 3.08029
157 3 0.523362 6.48491 2.97356
161 3 1.87947 8.83017 3.03797
229 3 1.85255 7.23999 5.11135
257 3 1.92334 8.76171 7.34882
273 3 3.2439 6.45157 7.38958
255 3 0.543674 6.52374 7.39817
325 3 1.99119 7.20474 9.46637
37 1 2.31041 6.90277 12.6687
69 2 1.43093 7.33385 12.4882
13 1 1.61106 8.07761 11.5524
84 2 4.00926 6.47637 13.5028
146 3 3.21527 11.2015 3.0508
137 3 3.15113 9.57905 0.998733
170 3 0.574669 11.1256 3.07902
118 3 1.84452 11.9761 1.02519
98 3 0.554419 9.59224 0.914866
233 3 3.22239 9.51194 5.12241
194 3 0.520247 9.60297 5.24242
214 3 1.95283 11.8881 5.17193
242 3 3.27319 11.1513 7.36582
268 3 0.608854 11.1008 7.40164
329 3 3.4207 9.68037 9.43953
289 3 0.638427 9.43146 9.48987
310 3 1.99251 11.8572 9.42357
10 1 1.61957 12.2878 13.2643
102 3 3.27121 14.2497 0.873188
174 3 1.94188 13.5187 3.07748
130 3 0.54473 14.126 0.954216
198 3 3.29834 14.1999 5.18139
226 3 0.603452 14.215 5.23069
270 3 1.88188 13.4018 7.37452
294 3 3.08803 14.1625 9.40993
322 3 0.488319 14.1875 9.44322
24 1 1.4411 14.2458 13.3524
78 2 2.52374 12.5814 12.8817
90 2 0.592895 14.7981 12.9055
62 1 0.56808 14.2495 12.1215
40 1 2.66824 12.5574 11.9288
134 3 1.89313 16.5236 0.898897
178 3 3.30253 15.8369 3.03701
158 3 0.504494 15.8132 3.10109
162 3 1.94163 18.0723 3.03921
230 3 1.88384 16.6047 5.17886
256 3 0.593321 15.7431 7.38109
274 3 3.18714 15.8098 7.36539
258 3 1.93363 18.1198 7.44029
326 3 1.92623 16.5425 9.60486
67 2 2.04512 16.6803 11.7566
32 1 1.22015 18.2259 11.965
25 1 2.99016 16.7821 11.8
57 1 1.50262 15.9555 12.2266
186 3 5.96343 1.73361 3.18318
110 3 5.96726 0.350877 1.07119
114 3 7.27866 2.6642 0.956149
141 3 4.71981 2.59352 0.93028
206 3 6.04512 0.209598 5.17392
210 3 7.29948 2.59212 5.28437
237 3 4.60608 2.64671 5.20483
282 3 6.06808 1.76287 7.3966
302 3 6.03802 0.249244 9.47466
306 3 7.25543 2.66452 9.45305
333 3 4.65671 2.68978 9.44144
41 1 5.98295 1.27949 11.9083
89 2 6.12019 0.308801 11.736
27 1 7.21378 0.104506 11.9186
87 2 4.80214 2.96482 12.2674
121 3 5.93517 4.91316 0.925222
189 3 7.30864 4.20109 3.05267
165 3 4.56898 4.13959 2.99338
217 3 5.94857 4.83142 5.18615
286 3 7.23204 4.08406 7.31425
261 3 4.48025 4.10509 7.33313
313 3 5.86478 4.92987 9.38172
44 1 6.55583 5.93335 11.8578
96 2 6.83474 5.70201 12.8308
48 1 5.14234 3.58731 12.9937
54 1 4.85275 3.50489 11.5119
58 1 4.40569 6.08893 12.5125
125 3 7.3869 7.36639 0.965448
149 3 5.94612 6.41042 3.02658
105 3 4.59886 7.2725 0.997712
181 3 4.63782 8.82583 3.01761
153 3 7.30695 8.71979 2.99412
221 3 7.28553 7.20488 5.20088
201 3 4.59286 7.24619 5.2132
245 3 5.93602 6.51568 7.25079
277 3 4.60627 8.89637 7.2816
249 3 7.33006 8.72472 7.36396
317 3 7.19858 7.28411 9.465
297 3 4.56619 7.31679 9.33012
50 1 6.12753 8.80538 12.2225
95 2 5.9577 8.89755 13.3177
39 1 6.61469 6.61161 13.3882
51 1 4.20701 7.31882 13.8663
185 3 5.89235 11.1869 3.03654
109 3 5.83011 9.7118 1.00603
113 3 7.25533 11.9174 0.964172
142 3 4.53444 11.9668 1.00805
205 3 5.97934 9.4701 5.16095
238 3 4.58333 11.9583 5.16935
209 3 7.24688 11.933 5.26551
281 3 5.90689 11.1883 7.3104
301 3 5.9725 9.64631 9.44904
334 3 4.63143 11.9007 9.37821
305 3 7.26127 11.906 9.50614
68 2 5.28889 11.4779 13.1167
35 1 4.86113 11.4769 12.1819
46 1 5.71099 9.79004 13.4567
21 1 4.63863 11.8845 13.7452
122 3 5.94527 14.3447 0.855842
190 3 7.32132 13.5734 3.10519
166 3 4.6243 13.5773 3.11148
218 3 5.84349 14.2625 5.1574
285 3 7.21681 13.5408 7.36283
262 3 4.5573 13.4901 7.4266
314 3 5.90813 14.2142 9.50671
7 1 5.78498 13.5331 12.5093
49 1 6.8446 14.8505 12.345
71 2 5.92671 14.4615 12.0136
126 3 7.34732 16.5687 0.944933
150 3 5.89087 15.8611 2.99941
106 3 4.61717 16.69 1.01601
154 3 7.36126 18.0998 3.1282
182 3 4.59019 18.2434 3.14461
222 3 7.214 16.489 5.22879
202 3 4.61118 16.7004 5.24903
246 3 5.92276 15.8073 7.31867
278 3 4.61589 18.1396 7.38765
250 3 7.28324 18.0948 7.42612
298 3 4.55676 16.6577 9.48065
318 3 7.20178 16.554 9.41467
31 1 5.08415 17.4872 12.0297
88 2 4.63837 16.6849 11.9881
28 1 5.15085 15.813 12.0648
74 2 8.05782 16.2217 12.5416
179 3 11.2958 1.76767 3.0331
103 3 11.3412 0.228226 0.961931
159 3 8.56541 1.84579 3.06018
131 3 8.64001 0.268111 0.964902
135 3 9.96514 2.58835 0.931414
199 3 11.2791 0.322398 5.28014
227 3 8.6143 0.144481 5.19085
231 3 9.97158 2.58392 5.17133
254 3 8.64988 1.84822 7.35577
275 3 11.3223 1.82213 7.44282
323 3 8.74275 0.217396 9.54198
327 3 9.93884 2.521 9.47326
295 3 11.3053 0.264361 9.47694
76 2 8.6759 0.518954 11.8336
29 1 9.19202 1.32 11.9782
70 2 10.0644 2.49716 11.9116
4 1 11.0746 2.49846 11.9557
139 3 11.3302 5.00587 0.90894
163 3 9.96763 3.99925 2.93624
100 3 8.68382 4.92548 0.93551
235 3 11.3327 4.85429 5.0613
196 3 8.63579 4.86148 5.20273
259 3 9.94516 4.21137 7.37503
331 3 11.2649 5.02264 9.45095
291 3 8.60144 4.95304 9.44565
61 1 8.72415 5.2129 13.029
86 2 9.59442 4.9252 12.9533
64 1 9.6174 3.35698 12.5369
42 1 10.0765 5.66597 12.4076
120 3 10.0077 7.26396 0.917404
148 3 11.2949 6.37566 3.04455
172 3 8.62883 6.45557 3.10412
176 3 9.96472 8.81803 3.10248
216 3 9.97888 7.30946 5.18576
265 3 8.53666 6.4652 7.31344
244 3 11.3322 6.39583 7.26721
272 3 9.99267 8.83878 7.38692
312 3 9.87291 7.16075 9.42844
33 1 8.47738 7.95477 10.6323
23 1 11.9013 8.11449 12.1158
180 3 11.2488 11.131 3.05113
104 3 11.317 9.62045 0.920285
160 3 8.61315 11.1175 3.06159
132 3 8.57326 9.6292 0.91318
136 3 9.92374 11.908 0.996782
200 3 11.3157 9.60846 5.16242
228 3 8.56343 9.5443 5.22548
232 3 9.95584 11.8893 5.21015
276 3 11.3602 11.2046 7.3554
253 3 8.57028 11.121 7.42547
296 3 11.3548 9.61189 9.52925
324 3 8.63312 9.56011 9.51194
328 3 9.95005 11.9314 9.49619
53 1 10.5094 9.81099 12.2147
11 1 11.9353 10.1823 12.1461
77 2 8.79756 10.4118 12.7095
72 2 11.3303 9.55323 11.7868
6 1 8.50207 10.3175 11.9127
34 1 9.022 12.2898 13.0835
60 1 8.21105 9.85328 13.2628
140 3 11.3338 14.1886 0.999803
164 3 9.98121 13.4619 3.06714
99 3 8.63973 14.3113 0.995409
236 3 11.3735 14.2253 5.10188
195 3 8.61705 14.2654 5.20002
260 3 9.9903 13.4341 7.33938
332 3 11.333 14.2086 9.41979
292 3 8.67843 14.219 9.35569
36 1 11.8553 14.8611 12.7676
93 2 11.5622 13.9504 12.889
16 1 10.7675 13.5414 12.7403
66 2 8.98451 13.283 12.8275
18 1 8.95938 13.2629 11.8443
119 3 10.0263 16.6229 0.99455
147 3 11.3782 15.8766 2.9502
171 3 8.68023 15.81 3.09358
175 3 9.99302 18.1812 3.03784
215 3 10.003 16.6089 5.217
266 3 8.63739 15.7989 7.32585
243 3 11.3356 15.8127 7.37403
271 3 9.99827 18.2156 7.37589
311 3 9.91744 16.6141 9.47566
19 1 8.88697 15.9049 12.6796
82 2 10.7678 16.8769 12.6643
30 1 10.9396 17.2793 11.8295
14 1 11.6251 16.9608 13.1345
52 1 9.25446 18.3737 12.1604
45 1 8.32078 16.7543 11.7156
151 3 13.9114 1.77458 3.06909
127 3 15.4173 2.58657 1.07005
107 3 12.7693 2.4728 0.882904
123 3 14.1238 0.204248 0.929054
219 3 14.0284 0.243395 5.25691
203 3 12.6587 2.61197 5.22
223 3 15.3803 2.55723 5.11908
247 3 14.0314 1.7725 7.40983
315 3 13.8945 0.082244 9.43073
299 3 12.694 2.53503 9.47797
319 3 15.358 2.64738 9.44917
75 2 12.6578 2.61202 11.9222
5 1 13.0613 1.85609 12.229
17 1 15.1102 0.223827 11.9899
65 2 14.1743 0.0358967 11.6978
111 3 14.0855 4.79274 0.878001
155 3 15.387 4.13375 3.0731
183 3 12.6604 4.09143 2.98429
207 3 14.0417 4.85234 5.11426
279 3 12.6302 4.0918 7.37222
251 3 15.4176 4.14475 7.42784
303 3 14.015 4.95535 9.4684
2 1 15.7594 4.52068 12.0462
91 2 14.141 4.59888 11.6928
12 1 13.6724 5.31505 12.1885
43 1 13.6487 3.72542 11.9423
115 3 15.4349 7.17647 0.852592
187 3 14.0487 6.39324 2.86045
144 3 12.632 7.33227 0.941829
192 3 15.3514 8.72983 3.00417
168 3 12.6471 8.75939 3.04389
211 3 15.4524 7.27524 5.14673
240 3 12.6285 7.17263 5.1596
287 3 15.3381 8.79607 7.31973
264 3 12.6588 8.75239 7.39283
283 3 13.9814 6.51789 7.40448
307 3 15.3521 7.31582 9.39312
336 3 12.6072 7.20384 9.43904
79 2 12.3222 7.22987 12.1873
22 1 13.2207 7.46877 12.6776
38 1 15.0269 7.95791 11.9377
83 2 14.8092 8.31816 13.0096
47 1 15.5712 8.21721 13.4904
152 3 13.9544 11.0728 3.11068
124 3 13.8354 9.63396 1.03632
108 3 12.6408 11.7973 0.95746
128 3 15.3102 11.8767 1.06198
220 3 13.9652 9.50479 5.19262
204 3 12.5621 11.9281 5.18334
224 3 15.41 11.8626 5.15531
248 3 13.9584 11.0801 7.30763
316 3 14.1105 9.51106 9.41219
300 3 12.7049 11.8075 9.52018
320 3 15.4006 11.8471 9.38663
81 2 12.808 11.8976 11.9528
9 1 13.7933 11.8912 12.1181
15 1 15.266 10.6618 12.8525
80 2 15.6587 11.4706 12.5733
20 1 16.062 11.1542 11.5627
112 3 13.9887 14.1961 0.889151
156 3 15.3219 13.4564 3.02004
184 3 12.7072 13.4444 2.98026
208 3 13.997 14.2689 5.24791
252 3 15.3202 13.452 7.33684
280 3 12.6834 13.425 7.33174
304 3 14.0266 14.2319 9.44399
26 1 12.4334 12.8932 12.4033
116 3 15.4068 16.6853 0.896457
188 3 14.0162 15.7707 3.09851
143 3 12.7264 16.6574 0.892389
167 3 12.7282 18.0774 3.01557
191 3 15.3883 18.0789 2.97482
212 3 15.3849 16.5439 5.17717
239 3 12.6231 16.6825 5.18547
288 3 15.3094 18.1258 7.34082
284 3 13.9975 15.742 7.34237
263 3 12.6098 18.1604 7.46552
308 3 15.338 16.4861 9.38752
335 3 12.6128 16.5504 9.49195
1 1 14.0999 17.7084 11.9086
94 2 13.7334 16.3368 12.6937
3 1 13.3479 15.7365 11.9759
59 1 14.6414 15.9105 12.9534
