ITEM: TIMESTEP
100000000
ITEM: NUMBER OF ATOMS
336
ITEM: BOX BOUNDS pp pp pp
0.0000000000000000e+00 1.6167135238600000e+01
0.0000000000000000e+00 1.8668199539200000e+01
0.0000000000000000e+00 2.5747400283800001e+01
ITEM: ATOMS id type x y z
145 3 3.1874 1.82539 3.09521
138 3 3.24969 0.245614 1.0763
169 3 0.49842 1.80377 3.08877
97 3 0.625535 0.20341 0.987896
117 3 1.95358 2.69132 0.99578
234 3 3.24726 0.241492 5.27358
193 3 0.613965 0.222771 5.15926
213 3 1.87858 2.60529 5.28377
267 3 0.523717 1.81164 7.40081
241 3 3.29411 1.79469 7.3744
290 3 0.540221 0.268528 9.46817
309 3 1.96477 2.56994 9.43284
330 3 3.33061 0.322654 9.48417
8 1 1.16866 1.07356 11.6954
73 2 1.90776 2.49389 11.6885
85 2 0.67326 0.250406 11.7415
55 1 2.85571 2.50165 11.7306
101 3 3.32767 4.95014 0.969302
173 3 1.8471 4.07689 3.139
129 3 0.624871 4.86839 0.927582
197 3 3.28243 4.9472 5.08101
225 3 0.4903 4.92318 5.15586
269 3 1.85311 4.22639 7.28212
293 3 3.28423 5.00257 9.41364
321 3 0.500815 4.98623 9.39064
56 1 1.58355 3.48722 11.6595
92 2 0.54844 4.86278 11.6088
63 1 0.909262 5.74896 11.8485
133 3 2.04692 7.306 1.04255
177 3 3.24849 6.46478 3.08504
157 3 0.502344 6.47438 2.98842
161 3 1.88142 8.8512 3.05833
229 3 1.87998 7.26536 5.1481
257 3 1.90969 8.77676 7.35287
273 3 3.26442 6.4664 7.40564
255 3 0.538667 6.53318 7.40504
325 3 1.96837 7.19032 9.46904
69 2 1.43741 7.29749 12.4721
37 1 2.35105 7.22487 12.8287
13 1 1.39368 7.88175 11.6099
84 2 3.95604 6.50988 13.5026
146 3 3.19579 11.1833 3.04989
137 3 3.22556 9.57381 0.960144
170 3 0.582069 11.1444 3.07922
118 3 1.86402 11.9759 1.02637
98 3 0.547783 9.60127 0.929785
233 3 3.22181 9.54896 5.10754
194 3 0.527804 9.61831 5.23786
214 3 1.94404 11.8891 5.21038
268 3 0.612394 11.1136 7.40807
242 3 3.27257 11.165 7.35677
329 3 3.39157 9.66591 9.42262
289 3 0.639458 9.42724 9.45523
310 3 1.97799 11.8428 9.45435
10 1 1.58173 12.0897 13.1619
40 1 2.64807 12.4338 11.9166
102 3 3.27148 14.2257 0.86794
174 3 1.91205 13.5012 3.11063
130 3 0.568061 14.1227 0.955391
198 3 3.29395 14.1869 5.21639
226 3 0.612982 14.2304 5.2337
270 3 1.90488 13.4048 7.40075
294 3 3.05589 14.1641 9.41106
322 3 0.496725 14.2176 9.47555
24 1 1.13052 14.0805 13.6046
78 2 2.53133 12.6066 12.8936
90 2 0.504943 14.7529 12.9309
62 1 0.555715 14.1921 11.8748
134 3 1.88793 16.5139 0.916434
178 3 3.29288 15.8254 3.02568
158 3 0.521583 15.7874 3.0806
162 3 1.92562 18.059 3.04357
230 3 1.87906 16.5799 5.20997
274 3 3.20664 15.807 7.383
258 3 1.92153 18.1633 7.4703
256 3 0.574189 15.7508 7.37112
326 3 1.94352 16.5449 9.58428
67 2 1.99647 16.6522 11.7184
25 1 3.10282 16.7595 11.8684
57 1 1.50641 16.001 12.3002
32 1 1.14056 17.9616 11.6168
186 3 5.95157 1.74684 3.15673
110 3 5.97023 0.372135 1.08842
114 3 7.27861 2.65784 0.979005
141 3 4.7331 2.58616 0.922216
206 3 6.03083 0.225589 5.18045
210 3 7.29627 2.58873 5.28105
237 3 4.58126 2.63003 5.2155
282 3 6.04833 1.77115 7.37683
302 3 6.02772 0.267329 9.46764
306 3 7.26713 2.68436 9.46793
333 3 4.66547 2.69386 9.43319
41 1 6.07783 1.40997 11.8012
89 2 6.08903 0.288418 11.7325
27 1 7.07155 0.087857 11.7413
87 2 4.79734 3.02374 12.2892
121 3 5.94288 4.89261 0.908723
189 3 7.30724 4.20132 3.04245
165 3 4.55319 4.09966 2.98275
217 3 5.96916 4.83309 5.17608
286 3 7.23791 4.09375 7.34045
261 3 4.48479 4.13671 7.35323
313 3 5.87628 4.92067 9.39364
44 1 6.67877 6.09011 11.9416
96 2 6.89984 5.7178 12.8169
48 1 5.09684 3.64928 12.9886
54 1 4.901 3.56965 11.3123
125 3 7.38579 7.35162 0.965131
149 3 5.95531 6.39443 2.99345
105 3 4.60126 7.27354 0.953691
181 3 4.63755 8.8413 3.05544
153 3 7.31496 8.74112 3.00754
221 3 7.31257 7.18575 5.23694
201 3 4.56973 7.23857 5.19003
277 3 4.62159 8.88552 7.27926
245 3 5.94064 6.53377 7.25958
249 3 7.3525 8.74718 7.37767
317 3 7.22028 7.2947 9.44705
297 3 4.52631 7.31928 9.35032
50 1 6.01315 9.01251 12.2933
39 1 6.57267 6.53652 13.3588
95 2 5.99456 8.86433 13.27
51 1 4.28788 7.48516 13.5859
58 1 4.46251 6.36231 12.6893
185 3 5.86447 11.1991 3.05714
113 3 7.22786 11.9239 0.993789
142 3 4.56009 11.9443 0.990243
109 3 5.8447 9.70095 0.99269
205 3 5.98556 9.47017 5.16564
238 3 4.58704 11.9911 5.1717
209 3 7.23465 11.9285 5.25085
281 3 5.92521 11.2075 7.31687
334 3 4.60616 11.8722 9.37762
305 3 7.2393 11.9088 9.5084
301 3 5.98984 9.65513 9.44086
68 2 5.26082 11.4426 13.0564
35 1 4.76476 11.5818 12.1426
21 1 4.72724 11.9481 13.6485
46 1 5.8623 9.8072 13.5298
60 1 8.00852 10.0282 13.344
122 3 5.93271 14.2932 0.85489
190 3 7.33167 13.5757 3.09169
166 3 4.6473 13.5441 3.10044
218 3 5.85673 14.2414 5.18099
285 3 7.19006 13.5254 7.35705
262 3 4.53647 13.5338 7.43339
314 3 5.91148 14.2027 9.52465
71 2 5.99582 14.4561 11.9593
49 1 6.94486 14.8392 12.1997
7 1 5.81144 13.504 12.411
126 3 7.39319 16.5963 0.94737
150 3 5.88874 15.8518 3.02257
106 3 4.59389 16.6635 1.04969
154 3 7.35255 18.0956 3.12923
182 3 4.61478 18.2107 3.15698
222 3 7.21077 16.5146 5.22285
202 3 4.66588 16.704 5.23741
246 3 5.90026 15.8141 7.32375
278 3 4.65065 18.1568 7.40295
250 3 7.29564 18.1051 7.41485
318 3 7.19975 16.531 9.42654
298 3 4.54843 16.6891 9.4711
88 2 4.63069 16.6501 11.9257
31 1 5.03044 17.5166 12.1973
74 2 8.06498 16.1949 12.5297
28 1 5.22131 15.8639 12.1187
179 3 11.2715 1.75239 3.04022
103 3 11.3166 0.233671 0.997433
159 3 8.58117 1.83139 3.09625
131 3 8.61484 0.256911 0.988385
135 3 9.94209 2.61975 0.917053
199 3 11.2996 0.291391 5.27221
227 3 8.62673 0.14429 5.1657
231 3 9.96482 2.55259 5.1752
254 3 8.64637 1.84911 7.35547
275 3 11.3161 1.80512 7.44064
295 3 11.332 0.229121 9.48291
327 3 9.94001 2.54482 9.47544
323 3 8.75614 0.216093 9.53132
70 2 10.1186 2.46669 11.9782
29 1 9.21407 1.38313 12.0978
4 1 11.0201 2.54087 11.9499
76 2 8.69432 0.570074 11.8538
139 3 11.3252 5.0232 0.921766
163 3 9.96527 4.04223 2.94086
100 3 8.66094 4.93685 0.920663
235 3 11.3289 4.88066 5.07803
196 3 8.62542 4.85707 5.20288
259 3 9.96749 4.20694 7.39288
331 3 11.274 5.03653 9.44266
291 3 8.63701 4.94258 9.425
64 1 9.71481 3.30398 12.2008
86 2 9.59123 4.90282 12.9727
61 1 8.67581 5.05471 12.969
42 1 10.1192 5.58534 12.4585
120 3 9.99474 7.22734 0.940991
148 3 11.3032 6.3719 3.02407
172 3 8.65114 6.46222 3.08892
176 3 9.96386 8.83632 3.09518
216 3 9.96499 7.29478 5.1887
265 3 8.53175 6.49841 7.3249
244 3 11.3034 6.40473 7.27692
272 3 9.99094 8.84272 7.39986
312 3 9.86133 7.15811 9.42996
33 1 8.58468 7.96212 10.6367
23 1 11.8031 8.15295 12.1833
180 3 11.2392 11.1255 3.03587
104 3 11.3251 9.61791 0.90448
160 3 8.60688 11.1293 3.05189
132 3 8.5515 9.64062 0.910264
136 3 9.94141 11.8926 0.9853
200 3 11.3161 9.61561 5.1688
228 3 8.55458 9.56873 5.25403
232 3 9.96149 11.8672 5.21287
276 3 11.3705 11.2384 7.34134
253 3 8.54046 11.0943 7.4281
296 3 11.3311 9.60662 9.54671
328 3 9.92815 11.8996 9.51579
324 3 8.66422 9.53773 9.5017
77 2 8.80918 10.503 12.7256
72 2 11.2981 9.58195 11.8319
53 1 10.4792 9.92887 12.165
34 1 8.67531 12.3042 12.8421
6 1 8.41366 10.5293 11.9323
11 1 12.0113 10.3876 11.8112
140 3 11.2969 14.1968 1.00728
164 3 9.96951 13.4356 3.05901
99 3 8.65524 14.2768 0.958547
236 3 11.3652 14.2145 5.12587
195 3 8.62173 14.2977 5.22033
260 3 9.98022 13.4758 7.33612
332 3 11.3211 14.2257 9.38476
292 3 8.67971 14.1935 9.37552
93 2 11.6143 13.892 12.8913
36 1 11.816 14.9613 12.8485
16 1 10.5244 13.5231 13.0522
66 2 8.94454 13.2899 12.7809
18 1 8.95318 13.3296 11.7333
119 3 10.0324 16.6154 1.01799
147 3 11.3772 15.8903 2.9572
171 3 8.69159 15.8057 3.09663
175 3 10.0129 18.1768 3.0566
215 3 10.003 16.6124 5.24027
266 3 8.60994 15.7901 7.30524
243 3 11.3421 15.8058 7.40591
271 3 9.99352 18.2013 7.36503
311 3 9.94113 16.5897 9.47088
52 1 9.23798 18.4513 12.3211
30 1 10.835 17.3206 11.7841
82 2 10.88 16.8775 12.6532
14 1 11.5763 17.1896 13.3532
19 1 9.01088 15.7467 12.7144
45 1 8.39135 16.691 11.6602
151 3 13.8986 1.78495 3.06709
107 3 12.7308 2.46727 0.884752
127 3 15.4311 2.59892 1.07536
123 3 14.1317 0.180891 0.936589
219 3 14.0138 0.228797 5.23264
203 3 12.6783 2.61006 5.18948
223 3 15.3506 2.56706 5.09998
247 3 14.0701 1.80005 7.42511
299 3 12.7249 2.52003 9.49498
319 3 15.3486 2.63725 9.45098
315 3 13.926 0.121711 9.44084
75 2 12.6742 2.64005 11.9546
5 1 13.2072 1.73866 12.5089
65 2 14.2862 0.00743721 11.7091
17 1 15.1457 0.305134 12.0008
111 3 14.104 4.75943 0.880843
155 3 15.355 4.12153 3.06278
183 3 12.6657 4.11669 3.00266
207 3 13.9981 4.8463 5.09511
279 3 12.6468 4.08583 7.38611
251 3 15.4006 4.12592 7.41112
303 3 14.0287 4.95555 9.48895
12 1 13.562 5.29254 12.1987
91 2 14.1811 4.62738 11.7183
2 1 15.717 4.7373 11.7533
43 1 13.4699 3.55552 11.9523
115 3 15.4288 7.17969 0.841912
187 3 14.0132 6.37786 2.85756
144 3 12.6505 7.28944 0.938409
168 3 12.6434 8.7874 3.05167
192 3 15.3555 8.74504 2.99111
211 3 15.4334 7.25403 5.15343
240 3 12.6657 7.14858 5.12506
287 3 15.3355 8.78189 7.31082
264 3 12.6478 8.76511 7.37307
283 3 14.0076 6.53096 7.41298
336 3 12.6366 7.2418 9.4209
307 3 15.3649 7.34121 9.38397
22 1 13.1887 7.40438 12.5782
79 2 12.352 7.20216 12.2558
83 2 14.7868 8.33074 12.9792
38 1 15.2981 8.28984 12.0292
47 1 15.5077 7.79182 13.5219
152 3 13.9301 11.068 3.10974
128 3 15.3341 11.8757 1.0478
108 3 12.6313 11.7885 0.950079
124 3 13.8554 9.6269 1.02142
220 3 13.9761 9.51148 5.18992
204 3 12.5677 11.9193 5.15702
224 3 15.4126 11.8631 5.20156
248 3 13.9428 11.1327 7.31262
316 3 14.0965 9.50873 9.38985
300 3 12.7174 11.8167 9.51922
320 3 15.4023 11.8643 9.40475
81 2 12.768 11.9546 11.9684
9 1 13.73 11.8055 11.9657
15 1 15.2243 10.6254 12.8814
80 2 15.6914 11.4478 12.5778
20 1 16.045 11.1554 11.6411
112 3 13.9935 14.2058 0.930878
156 3 15.3306 13.4577 3.027
184 3 12.7168 13.465 2.96919
208 3 13.9978 14.2313 5.25279
252 3 15.3265 13.4791 7.34533
280 3 12.684 13.4337 7.30763
304 3 13.9963 14.2336 9.463
26 1 12.1578 12.6139 12.2008
116 3 15.3906 16.6401 0.893884
188 3 14.0161 15.7899 3.1032
143 3 12.7035 16.6337 0.917166
191 3 15.3932 18.0854 2.95609
167 3 12.7159 18.1095 3.0238
212 3 15.3762 16.5226 5.18819
239 3 12.5988 16.6679 5.20376
284 3 13.9958 15.7264 7.33241
288 3 15.3076 18.1143 7.35808
263 3 12.6071 18.1538 7.4733
335 3 12.5882 16.5565 9.48774
308 3 15.3275 16.467 9.37587
1 1 13.835 17.8014 12.0147
94 2 13.7182 16.3363 12.6674
3 1 13.4283 15.8252 11.9279
59 1 14.4389 15.8805 12.9814
