ITEM: TIMESTEP
100000000
ITEM: NUMBER OF ATOMS
336
ITEM: BOX BOUNDS pp pp pp
0.0000000000000000e+00 1.6167135238600000e+01
0.0000000000000000e+00 1.8668199539200000e+01
0.0000000000000000e+00 2.5747400283800001e+01
ITEM: ATOMS id type x y z
145 3 3.20104 1.79943 3.10147
138 3 3.25099 0.252915 1.08509
169 3 0.499937 1.80608 3.13173
97 3 0.617583 0.212154 0.993111
117 3 1.92879 2.6994 1.013
234 3 3.24359 0.249657 5.25855
193 3 0.558314 0.231408 5.10825
213 3 1.87417 2.59965 5.24423
267 3 0.540614 1.82869 7.38214
241 3 3.27866 1.79925 7.40786
290 3 0.522685 0.236758 9.43717
309 3 1.98543 2.60205 9.42037
330 3 3.32771 0.320971 9.43728
8 1 1.24182 1.12216 11.8962
73 2 1.94686 2.52388 11.7181
85 2 0.622256 0.274326 11.6608
55 1 3.00361 2.69625 11.8828
101 3 3.31791 4.93108 1.00283
173 3 1.86027 4.07666 3.15237
129 3 0.621636 4.84935 0.908439
197 3 3.27601 4.98863 5.08533
225 3 0.482537 4.9139 5.14279
269 3 1.87737 4.21092 7.29386
321 3 0.496895 4.96474 9.38515
293 3 3.24164 4.97093 9.40521
92 2 0.613482 4.94337 11.6131
56 1 1.40508 3.24025 12.0748
63 1 1.14709 5.86439 11.9823
133 3 2.03478 7.29659 1.03999
177 3 3.2555 6.4535 3.0824
157 3 0.511352 6.48655 2.98417
161 3 1.90235 8.84715 3.0675
229 3 1.87653 7.2627 5.16798
273 3 3.23107 6.4743 7.41227
257 3 1.92341 8.7587 7.36209
255 3 0.528893 6.52848 7.39084
325 3 1.98652 7.18675 9.45864
37 1 2.31142 7.0516 12.5586
13 1 1.62767 7.80134 11.5315
69 2 1.38857 7.26184 12.4761
84 2 3.99142 6.48359 13.5166
146 3 3.22216 11.1871 3.05695
137 3 3.15733 9.57613 0.975165
170 3 0.573721 11.1017 3.08541
118 3 1.87488 11.9726 1.01389
98 3 0.563518 9.60367 0.919093
233 3 3.22632 9.54888 5.11097
194 3 0.508101 9.60791 5.22603
214 3 1.91432 11.8723 5.17842
268 3 0.608263 11.1073 7.38127
242 3 3.26078 11.1409 7.3601
329 3 3.38112 9.67005 9.4423
289 3 0.637951 9.43178 9.50043
310 3 2.00209 11.833 9.40845
10 1 1.7858 11.9282 13.2428
102 3 3.24951 14.2256 0.855011
174 3 1.94508 13.4951 3.11643
130 3 0.574707 14.1028 0.948703
198 3 3.28448 14.1947 5.17715
226 3 0.613184 14.2198 5.23694
270 3 1.90003 13.3792 7.4121
294 3 3.06858 14.1745 9.41853
322 3 0.501102 14.1898 9.43427
24 1 1.14282 14.3137 13.4163
78 2 2.50271 12.6129 12.9219
90 2 0.605333 14.8444 12.9256
62 1 0.470214 14.2598 12.017
40 1 2.66805 12.5747 11.9097
134 3 1.89479 16.5126 0.897231
178 3 3.32575 15.8452 3.03865
158 3 0.500836 15.8003 3.06374
162 3 1.94068 18.0388 3.04067
230 3 1.86905 16.6231 5.20983
274 3 3.18461 15.8047 7.35089
256 3 0.597992 15.7476 7.38781
258 3 1.94246 18.1775 7.43699
326 3 1.94068 16.5427 9.57256
67 2 2.0376 16.6313 11.7112
25 1 3.07289 16.744 11.7618
32 1 1.11684 18.1056 11.7709
57 1 1.47076 15.817 12.226
186 3 5.95439 1.76557 3.15215
141 3 4.71788 2.57518 0.946025
114 3 7.30321 2.65348 0.969522
110 3 5.97548 0.331065 1.0606
206 3 6.0449 0.223479 5.15414
237 3 4.57664 2.64925 5.20452
210 3 7.29272 2.58556 5.26998
282 3 6.05601 1.78129 7.38106
302 3 6.01541 0.267899 9.46885
306 3 7.26195 2.65797 9.47869
333 3 4.66138 2.68564 9.42513
41 1 6.04488 1.26353 11.989
89 2 6.06448 0.320292 11.7572
87 2 4.83761 2.95748 12.2754
27 1 7.08091 0.247851 11.6461
121 3 5.92568 4.94113 0.921967
189 3 7.28635 4.23163 3.04384
165 3 4.58058 4.10622 3.01846
217 3 5.93902 4.84417 5.18695
286 3 7.21877 4.08981 7.34361
261 3 4.49227 4.11628 7.32529
313 3 5.89776 4.91585 9.37402
96 2 6.88106 5.72767 12.818
48 1 4.84411 3.87133 12.8887
54 1 5.01156 3.29898 11.2924
44 1 6.43961 5.95748 11.9262
125 3 7.38323 7.37621 0.943478
149 3 5.95466 6.40885 3.02654
105 3 4.58615 7.28684 0.989583
153 3 7.31178 8.72937 2.99115
181 3 4.6277 8.81077 3.03352
221 3 7.27546 7.20492 5.19561
201 3 4.56085 7.2203 5.17568
277 3 4.6173 8.86524 7.28906
245 3 5.93623 6.54623 7.26666
249 3 7.30974 8.72366 7.38411
317 3 7.17547 7.3087 9.46099
297 3 4.59138 7.31412 9.34169
95 2 5.95052 8.91636 13.3896
39 1 6.66207 6.50109 13.3234
50 1 6.09971 8.72589 12.4838
51 1 4.39436 7.34999 13.845
58 1 4.45046 6.28978 12.6776
185 3 5.87741 11.1803 3.04553
142 3 4.53744 11.9539 0.98563
113 3 7.24366 11.936 0.971
109 3 5.85889 9.72663 1.01043
205 3 5.99482 9.47806 5.1763
238 3 4.59188 11.9407 5.17663
209 3 7.24178 11.9201 5.24006
281 3 5.90598 11.2184 7.31325
301 3 5.99496 9.66705 9.4654
334 3 4.6175 11.8982 9.36267
305 3 7.25085 11.9143 9.50825
68 2 5.28871 11.4846 13.1192
35 1 4.89523 11.4911 12.19
21 1 4.68027 11.8732 13.7684
46 1 5.71961 10.0356 13.3828
122 3 5.92721 14.3051 0.863827
190 3 7.34785 13.5611 3.1128
166 3 4.61954 13.5522 3.12398
218 3 5.84146 14.2692 5.15999
285 3 7.2264 13.5496 7.35649
262 3 4.53686 13.5333 7.43855
314 3 5.93945 14.2424 9.49914
7 1 5.72405 13.4781 12.117
49 1 6.83192 14.931 12.1912
71 2 5.93804 14.4879 11.9526
126 3 7.3595 16.6062 0.96999
150 3 5.89612 15.8587 3.00514
106 3 4.62027 16.6599 1.03537
154 3 7.33862 18.1258 3.12549
182 3 4.60911 18.2416 3.14589
222 3 7.21449 16.5062 5.24757
202 3 4.60973 16.6938 5.24222
246 3 5.88934 15.7734 7.33849
278 3 4.64097 18.1224 7.37987
250 3 7.29081 18.0696 7.40451
298 3 4.59536 16.6748 9.50119
318 3 7.21151 16.5448 9.43386
88 2 4.68436 16.6458 11.8478
31 1 5.14546 17.4697 11.8087
74 2 8.03958 16.1792 12.5586
28 1 5.37636 15.7989 12.2375
179 3 11.2984 1.77035 3.03308
103 3 11.3602 0.210554 0.968828
159 3 8.54909 1.83033 3.10461
131 3 8.60921 0.276579 0.992308
135 3 9.98127 2.61393 0.941329
199 3 11.315 0.331639 5.26717
227 3 8.6215 0.146938 5.16332
231 3 9.93929 2.572 5.19495
254 3 8.6498 1.84483 7.33779
275 3 11.324 1.82235 7.44552
323 3 8.72369 0.213864 9.52917
327 3 9.9253 2.5273 9.48625
295 3 11.3353 0.244694 9.47165
29 1 9.1991 1.41686 12.0419
76 2 8.6851 0.509774 11.7628
70 2 10.1444 2.52026 11.9312
4 1 11.2286 2.81771 11.9133
139 3 11.3398 5.01229 0.916449
163 3 9.95686 3.99781 2.93779
100 3 8.67202 4.93123 0.929932
235 3 11.3463 4.88689 5.06035
196 3 8.63785 4.8805 5.21973
259 3 9.93984 4.20441 7.38985
331 3 11.2572 5.05925 9.44088
291 3 8.61712 4.94284 9.44428
61 1 8.63965 5.36461 12.728
86 2 9.61421 4.93304 12.9201
64 1 9.59413 3.27238 12.3875
42 1 9.98028 5.40729 12.1509
120 3 10.0225 7.2557 0.93092
148 3 11.295 6.384 3.0221
172 3 8.66006 6.45585 3.07024
176 3 9.96108 8.82749 3.08547
216 3 9.97398 7.28167 5.19616
244 3 11.3046 6.39508 7.30101
265 3 8.534 6.49691 7.31682
272 3 10.0109 8.85029 7.38768
312 3 9.84291 7.15352 9.4547
33 1 8.75543 8.01406 10.5678
23 1 11.8785 8.1561 12.0978
180 3 11.2359 11.114 3.04113
104 3 11.3106 9.62987 0.912321
160 3 8.58848 11.1078 3.08336
132 3 8.54979 9.6428 0.934909
136 3 9.9123 11.9124 0.970048
200 3 11.322 9.61592 5.17228
228 3 8.56896 9.58101 5.21801
232 3 9.97792 11.8576 5.1904
276 3 11.3559 11.2227 7.35579
253 3 8.54822 11.1395 7.41209
324 3 8.67799 9.57915 9.49889
296 3 11.3134 9.61563 9.54123
328 3 9.94276 11.9204 9.51247
77 2 8.79759 10.4925 12.7188
11 1 11.812 10.2368 12.1251
72 2 11.3112 9.55055 11.8027
53 1 10.303 9.5187 12.1585
34 1 8.77249 12.4271 13.0242
6 1 8.37261 10.4446 11.7833
60 1 8.28552 9.8268 13.2072
140 3 11.3143 14.2183 0.994667
164 3 9.95544 13.4405 3.03739
99 3 8.65555 14.31 1.00607
236 3 11.3541 14.2513 5.10698
195 3 8.63339 14.2884 5.21881
260 3 9.99977 13.4685 7.34631
332 3 11.3287 14.2538 9.40006
292 3 8.69122 14.2118 9.39171
93 2 11.5706 13.935 12.8993
66 2 8.93381 13.2711 12.8031
16 1 10.5111 13.7759 12.8015
18 1 8.88994 13.2951 11.8407
36 1 11.8131 14.8009 12.6748
119 3 10.0211 16.5938 1.00202
147 3 11.3792 15.9093 2.9594
171 3 8.66195 15.8172 3.08655
175 3 10.0037 18.1574 3.02561
215 3 9.99833 16.6241 5.21237
266 3 8.64865 15.7994 7.30218
243 3 11.3422 15.8008 7.36814
271 3 10.008 18.1881 7.37913
311 3 9.91896 16.6236 9.46833
19 1 8.95643 16.07 12.9738
30 1 11.0999 16.9116 11.7181
82 2 10.8637 16.7688 12.7313
14 1 11.6165 17.0181 13.3067
52 1 9.32327 18.5388 12.2103
45 1 8.16699 16.4618 11.7335
151 3 13.922 1.78886 3.05105
107 3 12.7477 2.48633 0.91773
127 3 15.408 2.60676 1.08814
123 3 14.1206 0.213088 0.917438
219 3 13.996 0.236071 5.26364
203 3 12.6574 2.60163 5.20842
223 3 15.3909 2.55456 5.11148
247 3 14.089 1.76973 7.41656
299 3 12.6875 2.52712 9.48745
319 3 15.3596 2.64092 9.41406
315 3 13.9058 0.091684 9.42135
5 1 13.1289 1.85121 12.3355
75 2 12.6381 2.71556 11.9238
65 2 14.1858 0.0481678 11.7571
17 1 15.1818 0.184777 11.8809
111 3 14.1078 4.76329 0.879097
155 3 15.3673 4.13465 3.05425
183 3 12.665 4.076 2.9981
207 3 14.0389 4.84539 5.13217
251 3 15.4105 4.12583 7.38399
279 3 12.6536 4.08766 7.39716
303 3 14.0102 4.91643 9.46818
2 1 15.786 4.81524 12.017
12 1 13.6729 5.3129 12.2111
91 2 14.1754 4.6023 11.6496
43 1 13.5943 3.55264 11.9067
115 3 15.447 7.17467 0.86231
187 3 14.0447 6.38161 2.85268
144 3 12.6392 7.30496 0.917344
192 3 15.3556 8.75214 3.02414
168 3 12.6606 8.77707 3.02213
211 3 15.4446 7.28272 5.14219
240 3 12.65 7.13194 5.13667
287 3 15.3471 8.81078 7.32653
264 3 12.6726 8.76202 7.37155
283 3 13.9795 6.52685 7.40014
307 3 15.3407 7.30903 9.38683
336 3 12.6158 7.21445 9.40392
22 1 13.1938 7.39226 12.5479
79 2 12.3916 7.22715 12.2004
38 1 14.9806 8.33268 12.1063
83 2 14.7588 8.35848 13.0481
47 1 15.5394 7.95951 13.7559
152 3 13.9419 11.047 3.11326
128 3 15.312 11.8833 1.05956
108 3 12.6315 11.7752 0.950781
124 3 13.8787 9.64863 1.00684
220 3 13.973 9.51788 5.20319
224 3 15.4219 11.8447 5.19355
204 3 12.5872 11.9389 5.18447
248 3 13.968 11.1442 7.31471
316 3 14.1251 9.5022 9.39596
320 3 15.4145 11.8437 9.38036
300 3 12.6887 11.8439 9.52808
9 1 13.8106 11.9419 12.1095
81 2 12.7767 11.8554 11.9987
15 1 15.221 10.6309 12.9843
80 2 15.6927 11.4067 12.4999
20 1 16.1001 11.3105 11.6172
112 3 14.0075 14.2065 0.921788
156 3 15.3094 13.443 3.01777
184 3 12.6957 13.4329 2.99909
208 3 14.0018 14.2365 5.22581
252 3 15.3177 13.4676 7.3241
280 3 12.6653 13.4349 7.32977
304 3 13.9888 14.2616 9.44725
26 1 12.3619 12.9206 12.3006
116 3 15.4082 16.656 0.912793
188 3 14.0337 15.7842 3.084
143 3 12.7292 16.672 0.874691
167 3 12.7093 18.0975 3.01577
191 3 15.4069 18.0744 2.95247
212 3 15.4005 16.536 5.19078
239 3 12.5983 16.6728 5.20572
284 3 13.9704 15.7645 7.34615
288 3 15.3156 18.1389 7.32972
263 3 12.6436 18.1321 7.448
308 3 15.3161 16.4959 9.37632
335 3 12.5815 16.5636 9.48047
1 1 13.8121 17.6375 12.1588
94 2 13.636 16.3821 12.6797
3 1 13.47 15.8819 11.8152
59 1 14.5413 16.1045 13.0141
