ITEM: TIMESTEP
100000000
ITEM: NUMBER OF ATOMS
336
ITEM: BOX BOUNDS pp pp pp
0.0000000000000000e+00 1.6167135238600000e+01
0.0000000000000000e+00 1.8668199539200000e+01
0.0000000000000000e+00 2.5747400283800001e+01
ITEM: ATOMS id type x y z
145 3 3.17823 1.79691 3.1141
138 3 3.27486 0.262526 1.08359
169 3 0.490699 1.80324 3.11943
97 3 0.608428 0.201261 0.9919
117 3 1.94224 2.6837 1.01345
234 3 3.25539 0.244149 5.26525
193 3 0.58506 0.218131 5.11807
213 3 1.88735 2.60105 5.26359
241 3 3.30472 1.79227 7.40161
267 3 0.539999 1.82675 7.38604
290 3 0.527638 0.271028 9.43882
309 3 1.98055 2.60928 9.41494
330 3 3.32964 0.317346 9.47829
8 1 1.23222 1.0769 11.6851
73 2 1.95807 2.52109 11.7183
85 2 0.638905 0.280821 11.7071
55 1 2.87361 2.46493 11.8587
101 3 3.31854 4.92412 0.99255
173 3 1.84495 4.08817 3.12954
129 3 0.616763 4.84806 0.913962
197 3 3.28392 4.9736 5.07562
225 3 0.477653 4.91091 5.13275
269 3 1.88709 4.22974 7.30733
293 3 3.26653 4.99055 9.3987
321 3 0.497896 4.99818 9.39828
92 2 0.570234 4.92782 11.5954
56 1 1.42011 3.22705 11.8898
63 1 1.00692 5.77403 11.872
133 3 2.04115 7.30085 1.03461
177 3 3.26373 6.44876 3.0909
157 3 0.520296 6.4807 2.98753
161 3 1.90229 8.84868 3.07407
229 3 1.87723 7.2576 5.16963
257 3 1.92162 8.76552 7.34946
273 3 3.21472 6.49695 7.41276
255 3 0.515923 6.53421 7.39014
325 3 1.98798 7.17127 9.46421
37 1 2.36624 7.0347 12.8639
69 2 1.43777 7.32542 12.4963
13 1 1.72148 7.57834 11.5136
84 2 3.98284 6.4598 13.4936
146 3 3.22745 11.1866 3.06481
137 3 3.1934 9.59526 0.979145
170 3 0.575806 11.1159 3.08228
118 3 1.87213 11.9891 1.02452
98 3 0.58024 9.59025 0.913802
233 3 3.22982 9.55822 5.11755
194 3 0.491741 9.6053 5.23203
214 3 1.9072 11.8807 5.17353
242 3 3.26392 11.1338 7.32525
268 3 0.608358 11.0955 7.40467
329 3 3.38616 9.68634 9.42978
289 3 0.638887 9.4393 9.4763
310 3 2.00462 11.8465 9.43722
10 1 1.78735 12.0489 13.2825
102 3 3.2636 14.2029 0.868061
174 3 1.93509 13.5032 3.12421
130 3 0.580386 14.0923 0.951725
198 3 3.29166 14.212 5.17728
226 3 0.624387 14.2248 5.25217
270 3 1.89987 13.3933 7.42533
294 3 3.06177 14.1799 9.42225
322 3 0.514887 14.1888 9.46544
24 1 1.18366 14.3207 13.616
78 2 2.53331 12.595 12.925
90 2 0.579208 14.8137 12.9775
40 1 2.50854 12.634 11.9111
62 1 0.52739 14.3285 12.0442
134 3 1.87529 16.5061 0.917119
178 3 3.3088 15.8333 3.04343
158 3 0.506115 15.826 3.07537
162 3 1.92088 18.0488 3.02994
230 3 1.86576 16.5957 5.19054
274 3 3.20747 15.8122 7.36427
258 3 1.93783 18.1679 7.44459
256 3 0.61126 15.7255 7.37929
326 3 1.9547 16.534 9.58103
25 1 3.03387 16.5914 11.6399
67 2 2.02559 16.6526 11.7432
57 1 1.71286 15.7719 12.074
32 1 1.24257 18.008 11.5961
186 3 5.9745 1.74524 3.16417
114 3 7.28059 2.62353 0.969236
141 3 4.72895 2.55791 0.939404
110 3 5.96358 0.329635 1.04639
206 3 6.06735 0.216643 5.17106
237 3 4.57006 2.64413 5.20142
210 3 7.32106 2.57507 5.28229
282 3 6.05655 1.77179 7.37835
302 3 6.0337 0.273797 9.45358
306 3 7.27576 2.65202 9.46875
333 3 4.64997 2.66369 9.42897
41 1 6.02702 1.35149 11.9704
89 2 6.07854 0.313666 11.7921
27 1 7.20464 0.208998 11.9795
87 2 4.82453 2.99179 12.2803
121 3 5.91716 4.91322 0.924863
189 3 7.32885 4.21345 3.04891
165 3 4.57953 4.09806 3.00224
217 3 5.96384 4.85438 5.18468
261 3 4.49073 4.11365 7.32815
286 3 7.23624 4.08293 7.35887
313 3 5.8747 4.91566 9.38819
48 1 4.86693 3.73526 12.964
96 2 6.88447 5.72061 12.8003
54 1 5.01469 3.24694 11.3216
44 1 6.75029 5.88078 11.8902
58 1 4.57957 6.22048 12.6681
125 3 7.3842 7.37289 0.945521
149 3 5.96158 6.41564 3.0122
105 3 4.60322 7.28322 0.982092
181 3 4.6391 8.83934 3.03569
153 3 7.30835 8.74241 2.98442
221 3 7.30329 7.21038 5.21118
201 3 4.5708 7.21419 5.18319
245 3 5.93941 6.53826 7.24814
277 3 4.59805 8.87594 7.28085
249 3 7.33098 8.71742 7.38378
317 3 7.1958 7.2931 9.46606
297 3 4.56399 7.31456 9.35978
50 1 5.82022 8.99367 12.3894
95 2 5.964 8.89404 13.3901
39 1 6.43149 6.45597 13.2402
51 1 4.40992 7.36434 13.695
185 3 5.87751 11.179 3.05487
113 3 7.23464 11.9286 0.98101
142 3 4.54942 11.9578 1.00062
109 3 5.84659 9.74208 1.00879
205 3 6.00009 9.49006 5.17682
238 3 4.58857 11.939 5.17186
209 3 7.23726 11.9248 5.24922
281 3 5.91996 11.2207 7.32314
301 3 5.98024 9.66543 9.4635
334 3 4.61461 11.9051 9.38475
305 3 7.25342 11.9232 9.5239
68 2 5.30755 11.4721 13.0528
35 1 4.91556 11.518 12.0998
21 1 4.7021 11.9233 13.6125
46 1 5.72236 9.84283 13.3858
122 3 5.92926 14.307 0.862703
190 3 7.33619 13.5782 3.10796
166 3 4.62279 13.545 3.11812
218 3 5.83991 14.2489 5.1757
285 3 7.22002 13.5235 7.35532
262 3 4.55113 13.5466 7.41595
314 3 5.91756 14.2134 9.50247
49 1 6.95284 14.7695 12.0246
7 1 6.06503 13.5096 12.4513
71 2 5.93632 14.4663 11.9088
126 3 7.36536 16.6052 0.980424
150 3 5.87407 15.8656 3.00054
106 3 4.61349 16.6838 1.05589
154 3 7.35168 18.1459 3.12436
182 3 4.59088 18.2223 3.13946
222 3 7.21949 16.5137 5.24289
202 3 4.63143 16.6979 5.2477
246 3 5.88401 15.7831 7.34407
278 3 4.65288 18.1301 7.38654
250 3 7.28677 18.0661 7.40128
318 3 7.1944 16.5489 9.43065
298 3 4.5961 16.6771 9.48418
88 2 4.63408 16.6992 11.8833
31 1 5.06179 17.4941 11.9833
28 1 5.19269 15.9555 12.2928
74 2 8.05157 16.1905 12.5358
179 3 11.2929 1.76332 3.04164
103 3 11.3424 0.204435 0.977922
159 3 8.56639 1.83957 3.10309
131 3 8.60912 0.2865 1.01088
135 3 9.96582 2.61519 0.95276
199 3 11.3206 0.31883 5.28135
227 3 8.62729 0.146045 5.17205
231 3 9.93386 2.58358 5.18001
254 3 8.65414 1.82987 7.33493
275 3 11.3276 1.8116 7.42885
327 3 9.90487 2.53921 9.48365
323 3 8.73573 0.196679 9.51469
295 3 11.3353 0.237825 9.49455
70 2 10.1381 2.48225 11.9561
29 1 9.23874 1.35188 11.9991
4 1 11.0912 2.60157 11.896
76 2 8.66911 0.52982 11.7686
139 3 11.3453 5.02002 0.927902
163 3 9.96386 4.02455 2.92126
100 3 8.67288 4.93508 0.939239
235 3 11.3303 4.87722 5.06872
196 3 8.65001 4.87536 5.21623
259 3 9.95163 4.21054 7.37521
331 3 11.2788 5.03969 9.42549
291 3 8.62771 4.93248 9.43503
61 1 8.74505 5.19423 12.7289
64 1 9.85462 3.45221 12.2141
86 2 9.62469 4.90779 12.9754
42 1 9.90934 5.42236 12.1515
120 3 10.0125 7.25064 0.936328
148 3 11.3034 6.37357 3.02592
172 3 8.6735 6.45739 3.06916
176 3 9.96635 8.84093 3.08681
216 3 9.97072 7.25921 5.19778
244 3 11.3157 6.40028 7.30708
265 3 8.54605 6.50782 7.31339
272 3 10.0004 8.85261 7.3673
312 3 9.84683 7.1542 9.45979
33 1 8.85521 8.05566 10.6509
23 1 11.8438 8.11793 12.1702
180 3 11.2141 11.1086 3.02561
104 3 11.3139 9.65555 0.912925
160 3 8.57829 11.1135 3.08625
132 3 8.57472 9.64474 0.930615
136 3 9.94466 11.9128 0.97256
200 3 11.2915 9.61961 5.17343
228 3 8.5717 9.57466 5.20699
232 3 9.97509 11.8646 5.18986
276 3 11.3695 11.2193 7.35217
253 3 8.53199 11.1214 7.41514
324 3 8.68654 9.59838 9.50183
296 3 11.3142 9.6192 9.53499
328 3 9.93968 11.9113 9.49942
53 1 10.2759 9.8344 12.0585
6 1 8.55171 10.587 11.6854
72 2 11.3615 9.52921 11.8322
77 2 8.83184 10.51 12.7328
34 1 8.98105 12.3874 12.9595
11 1 11.9985 10.3965 11.9494
60 1 8.12333 9.95976 13.254
140 3 11.3027 14.2248 0.97933
164 3 9.96412 13.4474 3.04588
99 3 8.6509 14.2847 0.990775
236 3 11.3721 14.233 5.10709
195 3 8.62684 14.2852 5.23608
260 3 10.0063 13.4523 7.33403
332 3 11.3229 14.2421 9.38458
292 3 8.71984 14.2144 9.37244
36 1 11.8258 14.8853 12.7276
93 2 11.6039 13.8906 12.9295
16 1 10.5514 13.9867 12.7811
66 2 8.94988 13.2622 12.8152
18 1 9.17098 13.3708 11.7548
119 3 10.0239 16.6168 1.00837
147 3 11.3928 15.8976 2.95884
171 3 8.6773 15.8024 3.06697
175 3 9.98869 18.1579 3.03658
215 3 10.0182 16.6284 5.23568
266 3 8.62617 15.7998 7.32104
243 3 11.3446 15.8142 7.39946
271 3 10.0186 18.201 7.37769
311 3 9.938 16.5933 9.45006
19 1 8.99839 15.9802 12.9938
82 2 10.8551 16.7621 12.6631
30 1 11.1583 16.9932 11.6916
14 1 11.6228 17.0496 13.3641
52 1 9.28936 18.5392 12.2587
45 1 8.3695 16.4534 11.6323
151 3 13.927 1.8062 3.0603
107 3 12.723 2.48581 0.909524
127 3 15.4186 2.60064 1.07188
123 3 14.1179 0.194341 0.938256
219 3 14.0005 0.236116 5.24062
203 3 12.6617 2.6059 5.18463
223 3 15.3802 2.56299 5.09823
247 3 14.0836 1.78197 7.42268
319 3 15.3603 2.6059 9.42756
299 3 12.6896 2.53191 9.49803
315 3 13.904 0.117746 9.40756
75 2 12.6694 2.67158 11.9505
5 1 13.3301 1.92631 12.3475
65 2 14.2088 0.0258756 11.7604
17 1 15.1122 0.257672 11.8733
111 3 14.091 4.75703 0.879315
155 3 15.3588 4.14823 3.05639
183 3 12.6519 4.08757 2.99102
207 3 14.0032 4.83576 5.12927
251 3 15.4008 4.12952 7.38509
279 3 12.6447 4.10119 7.39713
303 3 14.0138 4.92601 9.45851
12 1 13.6122 5.2069 12.1993
91 2 14.1448 4.56296 11.7014
2 1 15.7982 4.8389 11.9472
43 1 13.4299 3.53543 11.902
115 3 15.4424 7.16928 0.854182
187 3 14.029 6.37374 2.83836
144 3 12.6291 7.30562 0.917262
168 3 12.6622 8.776 3.01598
192 3 15.3429 8.75512 3.02035
211 3 15.451 7.28797 5.13363
240 3 12.653 7.12393 5.13209
287 3 15.3176 8.80299 7.31909
264 3 12.6611 8.74456 7.38336
283 3 14.0069 6.52772 7.39386
307 3 15.362 7.31867 9.39292
336 3 12.6124 7.20492 9.40302
22 1 13.2222 7.52305 12.5719
79 2 12.3422 7.192 12.1864
38 1 15.2147 8.44739 12.0948
83 2 14.7295 8.35877 13.0738
47 1 15.5006 7.87654 13.618
152 3 13.9412 11.0541 3.11218
108 3 12.6451 11.7761 0.960403
128 3 15.3059 11.8786 1.07134
124 3 13.8711 9.66486 1.01279
220 3 13.9827 9.52779 5.19831
224 3 15.4185 11.841 5.21168
204 3 12.5726 11.9261 5.17627
248 3 13.9502 11.1248 7.33472
316 3 14.1024 9.49515 9.38944
320 3 15.4097 11.8489 9.39704
300 3 12.6954 11.828 9.5518
81 2 12.8075 11.8883 11.9222
9 1 13.8281 11.7562 12.0625
15 1 15.1219 10.6482 12.9106
80 2 15.6861 11.481 12.534
20 1 16.0254 11.1597 11.4717
112 3 13.9904 14.1854 0.91917
156 3 15.3348 13.4572 3.01198
184 3 12.6957 13.4482 2.98229
208 3 14.0135 14.2273 5.24426
252 3 15.3169 13.4678 7.34505
280 3 12.6973 13.4219 7.34397
304 3 13.9831 14.2635 9.4564
26 1 12.3744 12.837 12.3177
116 3 15.3984 16.6363 0.911549
188 3 14.0125 15.7883 3.08855
143 3 12.7173 16.6613 0.879076
167 3 12.6987 18.1091 3.01385
191 3 15.395 18.0931 2.93579
212 3 15.3914 16.5347 5.18752
239 3 12.5827 16.6727 5.1977
284 3 13.9792 15.7382 7.32094
288 3 15.3361 18.1132 7.3264
263 3 12.6548 18.1466 7.46037
335 3 12.5882 16.5501 9.46155
308 3 15.3184 16.4789 9.37664
1 1 14.0218 17.5993 12.2379
3 1 13.4146 16.0026 11.6748
94 2 13.6862 16.351 12.6563
59 1 14.5433 16.0664 12.9794
