ITEM: TIMESTEP
100000000
ITEM: NUMBER OF ATOMS
336
ITEM: BOX BOUNDS pp pp pp
0.0000000000000000e+00 1.6167135238600000e+01
0.0000000000000000e+00 1.8668199539200000e+01
0.0000000000000000e+00 2.5747400283800001e+01
ITEM: ATOMS id type x y z
145 3 3.18089 1.80018 3.09889
138 3 3.26967 0.253028 1.08316
169 3 0.496129 1.81527 3.11372
97 3 0.601629 0.2039 0.991638
117 3 1.93243 2.7014 1.01668
234 3 3.24832 0.238981 5.26852
193 3 0.576244 0.225065 5.11767
213 3 1.88796 2.59555 5.25525
241 3 3.28636 1.79963 7.40094
267 3 0.533118 1.8188 7.38598
290 3 0.525161 0.257086 9.43781
309 3 1.98344 2.61818 9.41944
330 3 3.32851 0.333799 9.46202
8 1 1.27111 1.06238 11.7495
73 2 1.96034 2.53217 11.7149
85 2 0.607731 0.263328 11.6752
55 1 2.89319 2.55927 11.958
101 3 3.32171 4.92875 0.984766
173 3 1.84902 4.08054 3.14008
129 3 0.615416 4.84822 0.908278
197 3 3.2895 4.98648 5.0783
225 3 0.471678 4.91295 5.13819
269 3 1.8701 4.22117 7.30031
293 3 3.26068 4.97827 9.40515
321 3 0.494743 4.97128 9.40112
56 1 1.42441 3.24731 12.0463
92 2 0.580769 4.95925 11.6092
63 1 1.05297 5.89793 11.9598
133 3 2.03906 7.30815 1.04861
177 3 3.25265 6.45248 3.09018
157 3 0.522086 6.49596 2.98228
161 3 1.90175 8.84836 3.06682
229 3 1.87393 7.26633 5.17495
257 3 1.91724 8.75143 7.35114
273 3 3.22173 6.47971 7.39717
255 3 0.524454 6.5333 7.38888
325 3 1.98802 7.16873 9.4616
37 1 2.31757 7.03258 12.6071
69 2 1.44019 7.31879 12.4637
13 1 1.54019 7.65101 11.527
84 2 4.00033 6.43225 13.511
146 3 3.2286 11.1645 3.05085
137 3 3.17669 9.58059 0.98441
170 3 0.571502 11.112 3.07329
118 3 1.8784 11.976 1.00374
98 3 0.576197 9.59658 0.914254
233 3 3.22916 9.56376 5.11584
194 3 0.502581 9.60958 5.22106
214 3 1.9078 11.8667 5.18214
242 3 3.25435 11.1254 7.34195
268 3 0.611868 11.1058 7.39132
329 3 3.37654 9.67855 9.43719
289 3 0.631879 9.43164 9.47503
310 3 2.00252 11.839 9.41363
10 1 1.78145 11.9213 13.3351
102 3 3.25794 14.2077 0.85645
174 3 1.93461 13.4948 3.12029
130 3 0.573741 14.0992 0.952422
198 3 3.2918 14.2028 5.19985
226 3 0.612502 14.222 5.24314
270 3 1.90443 13.3714 7.41715
294 3 3.06644 14.179 9.42187
322 3 0.492873 14.18 9.44945
24 1 1.07977 14.2801 13.499
78 2 2.4731 12.651 12.9359
90 2 0.584277 14.8172 12.9778
62 1 0.540997 14.224 11.9732
40 1 2.55939 12.5143 11.9766
134 3 1.88829 16.4927 0.907042
178 3 3.31452 15.8321 3.04236
158 3 0.516822 15.8234 3.07091
162 3 1.93593 18.0396 3.03636
230 3 1.87501 16.6131 5.20316
256 3 0.604768 15.7326 7.39018
274 3 3.20621 15.8096 7.36818
258 3 1.94809 18.1793 7.43438
326 3 1.9635 16.5342 9.5877
67 2 2.03073 16.6438 11.7205
32 1 1.17048 17.9929 11.7183
25 1 3.05957 16.7164 11.8051
57 1 1.62333 15.7111 12.3049
186 3 5.96055 1.74731 3.1592
114 3 7.28833 2.62183 0.975329
141 3 4.72985 2.55825 0.943786
110 3 5.96583 0.33597 1.04789
210 3 7.29828 2.58942 5.28384
206 3 6.04646 0.216375 5.17029
237 3 4.56747 2.64931 5.20761
282 3 6.06663 1.77072 7.37482
302 3 6.02028 0.274728 9.44449
333 3 4.65381 2.67894 9.4233
306 3 7.264 2.66201 9.47183
41 1 6.04892 1.30576 11.8821
89 2 6.08788 0.299502 11.7851
87 2 4.80115 2.98345 12.2701
27 1 7.10545 0.149484 11.8636
121 3 5.91921 4.93523 0.92215
189 3 7.30685 4.21835 3.04949
165 3 4.57676 4.10393 3.00053
217 3 5.9505 4.83744 5.18327
261 3 4.5139 4.14026 7.32153
286 3 7.23159 4.09662 7.35661
313 3 5.89318 4.91623 9.38932
96 2 6.86476 5.72652 12.8283
48 1 5.0216 3.69191 13.0054
44 1 6.59241 5.85696 11.9816
54 1 5.00124 3.30887 11.2311
58 1 4.5535 6.1028 12.8056
125 3 7.39139 7.37752 0.943981
149 3 5.95772 6.41189 3.01692
105 3 4.60118 7.28908 0.989181
181 3 4.65037 8.82114 3.02764
153 3 7.30535 8.74107 2.99128
221 3 7.29359 7.21209 5.20567
201 3 4.57183 7.21297 5.17894
277 3 4.60678 8.87408 7.28785
245 3 5.94159 6.54958 7.27126
249 3 7.32641 8.74002 7.3986
317 3 7.17787 7.29895 9.45153
297 3 4.57972 7.30805 9.34921
95 2 5.92985 8.90714 13.3813
50 1 5.98246 8.76973 12.4688
39 1 6.44081 6.45741 13.2247
51 1 4.36312 7.49419 13.6815
185 3 5.88721 11.1763 3.04222
109 3 5.84862 9.73232 1.01377
113 3 7.24804 11.9285 0.974222
142 3 4.54054 11.9637 1.00335
205 3 6.00472 9.49245 5.17946
238 3 4.5876 11.944 5.17195
209 3 7.23476 11.9307 5.25547
281 3 5.91079 11.2252 7.31518
301 3 5.99545 9.6677 9.44969
334 3 4.61145 11.9014 9.37081
305 3 7.24076 11.9175 9.51061
68 2 5.3223 11.4514 13.0784
35 1 4.95065 11.4679 12.1744
46 1 5.804 9.94086 13.3906
21 1 4.60547 12.0191 13.6673
122 3 5.91501 14.3062 0.855427
190 3 7.35253 13.5791 3.11243
166 3 4.61263 13.561 3.12415
218 3 5.84868 14.2633 5.17638
285 3 7.21829 13.5325 7.35778
262 3 4.53634 13.5453 7.42556
314 3 5.93504 14.2244 9.50895
71 2 5.89975 14.4723 11.8801
49 1 6.81003 14.7972 12.0583
7 1 5.90586 13.5681 12.1828
126 3 7.37215 16.5967 0.972396
150 3 5.87752 15.8613 3.00815
106 3 4.60664 16.6709 1.05261
154 3 7.33364 18.1368 3.12091
182 3 4.59893 18.2488 3.13008
222 3 7.22849 16.5108 5.23963
202 3 4.61878 16.6899 5.24542
246 3 5.89034 15.7837 7.34185
278 3 4.64896 18.1211 7.38672
250 3 7.28301 18.0572 7.41212
318 3 7.20205 16.5412 9.43564
298 3 4.61408 16.6716 9.49096
88 2 4.67598 16.7076 11.8884
31 1 5.06712 17.5338 11.9877
74 2 8.04069 16.1601 12.545
28 1 5.21431 15.9913 12.2184
179 3 11.3046 1.77078 3.04459
103 3 11.3453 0.211993 0.969149
159 3 8.57098 1.83492 3.11189
131 3 8.60479 0.281524 0.995622
135 3 9.97009 2.62028 0.95447
199 3 11.3197 0.327875 5.27451
227 3 8.63648 0.15462 5.16189
231 3 9.93751 2.5785 5.19299
254 3 8.65419 1.83692 7.3221
275 3 11.334 1.81994 7.4344
327 3 9.91316 2.53569 9.47962
323 3 8.71745 0.209052 9.52623
295 3 11.3293 0.229527 9.49249
76 2 8.66638 0.52526 11.7673
70 2 10.1577 2.50589 11.974
29 1 9.34554 1.37927 11.9913
4 1 11.155 2.78483 11.845
139 3 11.3417 5.02373 0.932891
163 3 9.96523 4.01193 2.9345
100 3 8.68018 4.9274 0.938037
235 3 11.3383 4.87945 5.06441
196 3 8.63433 4.87218 5.20756
259 3 9.94865 4.20024 7.38831
331 3 11.2706 5.04255 9.42874
291 3 8.61913 4.93268 9.44331
64 1 9.67236 3.36815 12.3683
86 2 9.6191 4.90668 12.9321
61 1 8.75337 5.17058 12.7351
42 1 10.1491 5.41513 12.195
120 3 10.0226 7.26462 0.92908
148 3 11.2919 6.37692 3.01057
172 3 8.65852 6.45829 3.06562
176 3 9.95843 8.83909 3.08716
216 3 9.96316 7.27172 5.20638
244 3 11.2998 6.39437 7.29318
265 3 8.54331 6.51404 7.311
272 3 10.0002 8.86122 7.38225
312 3 9.85578 7.15664 9.45796
33 1 8.64359 8.13124 10.5817
23 1 11.8883 8.14913 12.067
180 3 11.2256 11.1258 3.03033
104 3 11.3044 9.6509 0.916335
160 3 8.58813 11.1057 3.09484
132 3 8.55587 9.65626 0.933097
136 3 9.92762 11.9046 0.973813
200 3 11.3127 9.61869 5.18405
228 3 8.57005 9.57353 5.21669
232 3 9.9693 11.8678 5.18348
253 3 8.53532 11.1258 7.42652
276 3 11.3644 11.2292 7.35687
296 3 11.3154 9.60244 9.54085
324 3 8.68323 9.59065 9.48941
328 3 9.94282 11.9045 9.50414
6 1 8.5005 10.6263 11.7399
72 2 11.3111 9.54739 11.8173
77 2 8.82469 10.5217 12.739
53 1 10.2603 9.71881 12.1104
34 1 8.83012 12.4139 13.1139
11 1 11.9127 10.482 12.1076
60 1 8.22713 9.86479 13.2395
140 3 11.3079 14.2138 0.990314
164 3 9.94762 13.4471 3.03788
99 3 8.6643 14.2972 1.00445
236 3 11.3734 14.244 5.12032
195 3 8.62516 14.2865 5.2299
260 3 10.0022 13.4568 7.3411
332 3 11.3241 14.244 9.38873
292 3 8.70362 14.2051 9.37671
18 1 9.08381 13.3029 11.7669
93 2 11.5817 13.937 12.8947
16 1 10.6355 13.9704 12.7774
66 2 8.93385 13.2695 12.8122
36 1 11.778 14.7758 12.7964
119 3 10.0172 16.6119 1.01143
147 3 11.3924 15.8896 2.94531
171 3 8.66862 15.8016 3.07924
175 3 10.0059 18.1548 3.03997
215 3 10.004 16.6267 5.21388
266 3 8.63584 15.803 7.31487
243 3 11.3448 15.8098 7.38349
271 3 10.0205 18.1809 7.37862
311 3 9.9339 16.6069 9.45287
19 1 8.98417 15.9237 12.9097
82 2 10.8916 16.7721 12.7005
30 1 11.0965 16.9167 11.8548
14 1 11.5941 16.9937 13.4139
52 1 9.26066 18.5442 12.1681
45 1 8.31037 16.5003 11.6652
151 3 13.9301 1.77692 3.06765
127 3 15.4154 2.60673 1.09004
107 3 12.7274 2.49066 0.905205
123 3 14.127 0.197793 0.925162
219 3 14.0037 0.231529 5.25957
223 3 15.3826 2.56718 5.11565
203 3 12.6545 2.60376 5.1984
247 3 14.0875 1.78009 7.41336
299 3 12.6959 2.53998 9.49615
319 3 15.3499 2.6096 9.41734
315 3 13.9092 0.110499 9.42367
75 2 12.6351 2.71046 11.9534
5 1 13.185 1.86742 12.2811
65 2 14.1867 0.0441287 11.7729
17 1 15.2433 0.0640212 11.922
111 3 14.0953 4.75635 0.881116
155 3 15.3538 4.14852 3.0552
183 3 12.6552 4.08291 2.99661
207 3 14.0251 4.8449 5.13007
251 3 15.4129 4.11991 7.38494
279 3 12.6445 4.10212 7.3955
303 3 14.008 4.91562 9.46254
12 1 13.7598 5.24592 12.2297
2 1 15.7709 4.78658 11.8052
91 2 14.1392 4.57301 11.6561
43 1 13.5146 3.60863 11.8709
115 3 15.435 7.17317 0.861787
187 3 14.0425 6.37603 2.84302
144 3 12.6413 7.30444 0.920093
168 3 12.6613 8.76331 3.02312
192 3 15.3646 8.75158 3.02234
211 3 15.4515 7.28285 5.12994
240 3 12.6638 7.13395 5.13309
287 3 15.3265 8.80352 7.31705
264 3 12.6667 8.7463 7.37847
283 3 14.0066 6.52869 7.39432
307 3 15.3393 7.32068 9.38892
336 3 12.6196 7.21005 9.41339
79 2 12.3682 7.21025 12.1596
22 1 13.1371 7.4239 12.6646
38 1 15.1554 8.47127 12.1435
83 2 14.7578 8.3426 13.0364
47 1 15.4482 7.85821 13.6409
152 3 13.9396 11.0524 3.09942
108 3 12.6484 11.771 0.949549
128 3 15.3229 11.8824 1.0573
124 3 13.8685 9.66439 0.995886
220 3 13.9699 9.52885 5.20416
224 3 15.418 11.8409 5.20921
204 3 12.5731 11.9432 5.18198
248 3 13.956 11.1318 7.32742
316 3 14.1099 9.49872 9.4049
320 3 15.4129 11.8281 9.37615
300 3 12.6803 11.8449 9.5381
9 1 13.7359 11.8837 11.9869
81 2 12.7889 11.8988 11.9391
15 1 15.1362 10.6325 12.9625
80 2 15.6971 11.4537 12.5171
20 1 16.0886 11.2517 11.5736
112 3 14.0055 14.2135 0.91857
156 3 15.3309 13.4378 3.01306
184 3 12.6954 13.4442 2.99135
208 3 13.997 14.2215 5.23071
252 3 15.3159 13.4631 7.34336
280 3 12.666 13.4355 7.33786
304 3 13.9823 14.2599 9.45161
26 1 12.4054 12.9981 12.4256
116 3 15.4074 16.6547 0.911926
188 3 14.0336 15.7827 3.08983
143 3 12.7162 16.6696 0.8866
167 3 12.7113 18.1102 3.019
191 3 15.3988 18.0672 2.95838
212 3 15.3972 16.5422 5.19827
239 3 12.5932 16.673 5.20664
284 3 13.9845 15.7518 7.3276
288 3 15.3315 18.1249 7.33297
263 3 12.6442 18.1488 7.44009
308 3 15.3311 16.4805 9.37642
335 3 12.5867 16.549 9.45613
1 1 13.8595 17.6013 12.1711
59 1 14.5491 16.1509 12.947
94 2 13.677 16.3643 12.6557
3 1 13.3996 15.9013 11.7231
