ITEM: TIMESTEP
2000000000
ITEM: NUMBER OF ATOMS
336
ITEM: BOX BOUNDS pp pp pp
0.0000000000000000e+00 1.6167135238600000e+01
0.0000000000000000e+00 1.8668199539200000e+01
0.0000000000000000e+00 2.5747400283800001e+01
ITEM: ATOMS id type x y z fx fy fz
97 3 0 0 0.926649 0.00329221 0.00439011 0.602321
193 3 0 0 5.21823 0.260309 0.214878 -0.424455
169 3 0 1.55571 3.07244 0.000960439 0.0225877 -0.519379
267 3 0.00418372 1.58884 7.33137 0.32812 -0.755948 0.844569
309 3 1.35289 2.26729 9.52955 0.338624 0.0394837 -0.832356
94 2 1.28297 2.25039 11.7886 1.25144 0.850943 0.12423
58 1 0.299579 2.32384 12.0099 0.378092 0.204911 -0.0682078
117 3 1.34729 2.33357 0.926649 0.0012246 0.00188968 0.63308
213 3 1.34729 2.33357 5.21823 0.274709 0.0496074 0.0985455
62 1 1.8572 3.12015 11.9907 -1.19279 -0.95979 -0.150569
173 3 1.34729 3.88919 3.07244 -0.0075281 0.00570022 -0.480627
269 3 1.34934 3.8892 7.3735 0.475417 -0.207946 0.593002
129 3 0 4.66705 0.926649 -0.000137046 0.00546852 0.614281
225 3 0 4.66705 5.21823 -0.0366929 -0.101913 0.0285806
321 3 0.0329176 4.6822 9.48466 0.0975925 -0.0126309 -0.444097
157 3 0 6.22276 3.07244 -0.0070135 -0.00415791 -0.454522
255 3 0.0334802 6.19528 7.37435 0.0676962 -0.115889 -0.0513995
54 1 1.48779 6.93695 13.5008 -0.57957 0.525962 0.0301838
133 3 1.34729 7.00062 0.926649 0.000924693 0.00539693 0.622158
229 3 1.34729 7.00062 5.21823 0.135146 -0.139948 -0.0976267
325 3 1.39484 7.06795 9.41769 -0.143339 -0.712283 0.139618
50 1 1.85015 7.61851 12.1158 -0.595282 1.16147 -0.426732
161 3 1.34729 8.55624 3.07244 0.00205248 0.00390579 -0.536844
257 3 1.35955 8.54898 7.30816 0.352612 0.00800157 0.49018
289 3 0.0274779 9.24784 9.40453 0.472852 1.10338 0.646132
98 3 0 9.3341 0.926649 0.00520468 -0.00112563 0.613909
194 3 0 9.3341 5.21823 -0.0265172 0.0849651 -0.275925
88 2 0.578932 9.37568 12.3559 -0.37287 0.338997 0.257979
48 1 0.485334 10.3198 12.6733 -0.0891028 -0.573367 -0.443891
170 3 0 10.8898 3.07244 -0.0104732 0.00983791 -0.511411
310 3 1.27658 11.6173 9.47742 0.749552 0.401061 -0.404517
268 3 0.00834927 10.9193 7.35945 0.16838 -0.551632 -0.236965
118 3 1.34729 11.6677 0.926649 0.00124512 0.00373117 0.610924
214 3 1.34729 11.6677 5.21823 -0.00345988 -0.188087 -0.451251
28 1 1.12082 12.6555 12.8187 -0.0393483 -0.159449 0.160193
80 2 0.19131 12.3257 12.7923 0.0840458 0.0385675 0.445301
174 3 1.34729 13.2233 3.07244 0.00562411 -0.00547385 -0.577894
270 3 1.36689 13.2102 7.26764 0.0284949 0.0561261 1.58361
322 3 0.0704772 13.9485 9.45061 -0.325037 -0.088367 -0.468581
130 3 0 14.0011 0.926649 0.000255443 0.000738102 0.612804
226 3 0 14.0011 5.21823 -0.0579589 -0.0679612 -0.39886
158 3 0 15.5569 3.07244 0.00357441 0.00950814 -0.564908
256 3 0.0227247 15.5853 7.26618 -0.112972 -1.0099 1.33421
326 3 1.41463 16.2528 9.36457 -0.34076 0.285971 0.270524
64 1 1.71186 15.3982 12.0197 0.0748192 -0.0878732 -0.103053
96 2 1.55903 16.0126 12.7757 0.0274499 -0.707391 1.0924
60 1 1.83342 15.4956 13.5937 -0.277183 0.616657 -1.07986
134 3 1.34729 16.3347 0.926649 -0.000173759 -0.00199868 0.594021
230 3 1.34729 16.3347 5.21823 0.288285 0.338798 -0.346221
162 3 1.34729 17.8903 3.07244 -0.00513272 0.0248685 -0.509122
258 3 1.3766 17.9665 7.38643 0.121287 -1.131 -0.295604
5 1 2.20312 0.715685 11.9783 -0.414197 0.297906 0.151861
145 3 2.6945 1.55567 3.07244 0.0123208 -0.00738536 -0.484617
241 3 2.77591 1.50194 7.40769 -0.497871 0.874341 0.0990948
101 3 2.6945 4.667 0.926649 -0.0051683 -0.00364433 0.613426
197 3 2.6945 4.667 5.21823 0.14955 -0.0658458 0.303821
293 3 2.72669 4.5402 9.56694 -0.312458 0.749234 -0.592618
95 2 2.57137 4.54363 11.9352 -0.0308775 0.0922249 -0.167328
59 1 3.52654 4.59687 12.2089 0.0742376 -0.103998 -0.244203
63 1 2.2012 5.45981 12.1882 -0.00694576 -0.140715 -0.00804347
177 3 2.6945 6.22272 3.07244 0.00272189 -0.00760009 -0.471381
273 3 2.74431 6.24906 7.40413 -0.232263 -0.881283 -0.507687
90 2 2.05097 6.90948 12.7203 1.1603 -1.45506 0.60677
137 3 2.6945 9.33405 0.926649 4.47513e-06 -0.00234356 0.622326
233 3 2.6945 9.33405 5.21823 0.190904 -0.0356834 -0.196877
329 3 2.8176 9.31437 9.45491 -0.525549 0.190963 -0.142583
146 3 2.6945 10.8898 3.07244 0.00118876 -0.00623389 -0.520444
242 3 2.69463 10.8738 7.34988 0.349229 0.239641 0.442544
55 1 3.6026 11.9012 12.905 -0.919644 0.995619 -0.465324
91 2 3.07201 12.6979 12.5519 0.371745 -0.675524 -0.00326664
51 1 2.75037 12.4291 11.6296 0.441181 0.0348451 0.461587
102 3 2.6945 14.0011 0.926649 0.00435619 -0.00296835 0.607485
198 3 2.6945 14.0011 5.21823 0.301555 -0.0389538 -0.410902
294 3 2.71298 13.9959 9.44284 -0.229679 -0.261403 -0.305531
178 3 2.6945 15.5568 3.07244 0.00821868 -0.00952861 -0.529668
274 3 2.732 15.5368 7.33511 -0.124027 0.181539 0.255374
138 3 2.6945 18.6682 0.926649 0.00428353 -0.00349828 0.604605
234 3 2.6945 18.6682 5.21823 0.128649 0.074543 -0.170752
330 3 2.75703 18.5276 9.48578 -0.168716 0.637165 -0.108978
1 1 2.13605 17.7828 12.0341 -0.174517 -0.192943 0.326977
65 2 2.7232 18.5532 11.8955 0.271092 -0.0460308 -0.432677
110 3 5.38907 4.67265e-05 0.926649 0.000540114 -0.0026606 0.622283
206 3 5.38907 4.67265e-05 5.21823 0.278696 -0.0221561 -0.343939
186 3 5.38907 1.55567 3.07244 0.00150895 0.00449143 -0.539279
282 3 5.45984 1.52328 7.32303 -0.214496 0.572515 1.00154
333 3 4.15252 2.24007 9.44435 -0.358784 0.350989 -0.205071
141 3 4.04178 2.33352 0.926649 0.00447837 -0.00110821 0.612367
237 3 4.04178 2.33352 5.21823 0.0918952 0.11663 0.130509
165 3 4.04178 3.88924 3.07244 -0.015813 -0.00821631 -0.461392
261 3 4.0804 3.87552 7.48765 -0.0459013 -0.239358 -0.887087
313 3 5.41884 4.61289 9.54824 0.087008 0.36847 -0.655316
92 2 5.2019 4.47048 11.8352 -0.0183379 1.07659 -0.1392
52 1 5.46732 3.56454 12.0208 0.655307 -0.599863 0.123302
121 3 5.38907 4.6671 0.926649 0.00157987 0.00553995 0.610079
217 3 5.38907 4.6671 5.21823 -0.0918315 -0.146082 0.0695607
56 1 5.96949 5.10842 12.0924 -0.0171537 -0.189817 0.181618
149 3 5.38907 6.22272 3.07244 -0.000757465 -0.0150879 -0.524398
245 3 5.44216 6.22163 7.31816 -0.460952 -0.15221 0.48645
105 3 4.04178 7.00057 0.926649 0.00518366 -0.0100037 0.619091
201 3 4.04178 7.00057 5.21823 0.0600395 -0.0582758 -0.152563
297 3 4.10905 7.02498 9.37728 0.0333761 -0.0783407 1.12727
181 3 4.04178 8.55629 3.07244 0.00709044 -0.00699057 -0.484222
277 3 4.07554 8.53464 7.39272 0.00336421 0.542021 -0.681735
301 3 5.48907 9.27482 9.41703 -0.830728 0.454676 0.112891
109 3 5.38907 9.33415 0.926649 0.0037722 0.00126133 0.60837
205 3 5.38907 9.33415 5.21823 0.0756219 0.163555 0.110809
89 2 4.63003 10.3671 12.9681 0.072437 0.155213 -0.115029
53 1 4.39237 10.2062 12.0272 -0.232873 -0.239718 -0.270889
49 1 5.23091 9.6214 13.1743 0.0389653 -0.110522 0.0802797
185 3 5.38907 10.8898 3.07244 0.00681954 0.0187873 -0.516725
281 3 5.44266 10.972 7.36279 -0.678009 -1.27408 0.164427
334 3 4.05856 11.6024 9.49407 -0.222487 0.159439 -0.653933
142 3 4.04178 11.6676 0.926649 0.00488002 -0.00560782 0.608423
238 3 4.04178 11.6676 5.21823 0.0837953 -0.0381093 -0.0722914
166 3 4.04178 13.2233 3.07244 0.0101332 -0.0197013 -0.516692
262 3 4.0509 13.2139 7.37065 0.0807437 -0.0630153 0.0619022
4 1 4.52845 13.8499 11.9515 0.0906936 -0.0953647 0.389247
122 3 5.38907 14.0012 0.926649 -5.34199e-06 -0.00112923 0.604919
218 3 5.38907 14.0012 5.21823 0.07748 -0.00532565 -0.068043
314 3 5.45143 14.0286 9.45635 -0.516356 -0.452075 0.263992
68 2 5.47707 14.138 11.8659 0.587699 -1.90638 0.0813207
150 3 5.38907 15.5568 3.07244 6.09235e-05 -0.00728971 -0.522638
246 3 5.41914 15.5546 7.37611 0.0799618 -0.0384968 -0.263174
298 3 4.08837 16.2584 9.40512 -0.503631 0.266144 -0.202658
106 3 4.04178 16.3347 0.926649 0.000381489 0.000580793 0.61683
202 3 4.04178 16.3347 5.21823 0.177869 -0.0193433 -0.217013
182 3 4.04178 17.8904 3.07244 0.00475092 -0.00390805 -0.581288
278 3 4.09436 17.8903 7.31483 -0.00615078 -0.265776 1.01047
302 3 5.49128 18.6469 9.48759 -0.386357 0.0909654 -0.476382
43 1 5.7726 17.7687 11.9909 0.424639 -0.0025681 -0.16094
47 1 4.43085 18.5308 12.1889 -0.0507284 0.496607 -0.543879
87 2 5.35376 18.664 11.8245 0.156574 -0.452152 0.344377
114 3 6.73628 2.33348 0.926649 -0.00437406 0.00479128 0.624193
210 3 6.73628 2.33348 5.21823 0.20126 0.275066 0.0328882
9 1 6.58496 1.34495 11.9961 0.637183 1.54572 -0.615564
13 1 7.96175 2.20888 11.8708 1.51063 -0.12872 0.697013
69 2 7.01097 2.26116 11.7275 -2.86553 -1.48806 0.214367
306 3 6.95007 2.36906 9.5007 -1.37954 -0.0841601 -0.478176
189 3 6.73628 3.88919 3.07244 -0.0119197 0.0238999 -0.527719
286 3 6.7738 3.97344 7.38494 0.0294395 -1.14582 0.0640329
291 3 8.08046 4.74593 9.43202 0.920255 -0.314674 -0.123306
125 3 6.73628 7.00053 0.926649 0.0030965 0.00164081 0.620197
221 3 6.73628 7.00053 5.21823 0.228731 0.00780861 -0.246419
77 2 7.20701 6.07163 12.3974 0.834533 -0.503619 -0.579447
29 1 7.9301 6.03561 11.6629 -1.06735 0.184968 0.996409
317 3 6.75651 7.06459 9.41039 0.354785 -0.908059 0.219631
25 1 7.11405 7.03423 12.6836 0.032865 -0.528533 -0.355119
153 3 6.73628 8.55624 3.07244 0.00620531 0.00138037 -0.499451
249 3 6.81596 8.54704 7.33721 -0.533678 0.0281876 -0.186153
42 1 7.62019 8.98988 13.0377 1.4283 0.93671 1.18147
86 2 6.84013 8.60618 12.6629 -1.04744 -0.396287 0.258134
46 1 7.05793 8.69843 11.714 -0.407295 0.0284221 -1.20138
113 3 6.73628 11.6676 0.926649 0.00408949 0.00408635 0.611473
209 3 6.73628 11.6676 5.21823 0.114717 0.128933 -0.357331
305 3 6.80936 11.5972 9.48323 -0.135347 0.183153 0.415356
253 3 8.06062 10.9114 7.36491 0.577199 -0.666623 -0.0760304
37 1 7.63125 11.5327 12.5428 -0.610476 0.415902 -0.730088
33 1 6.10163 11.2694 12.1517 0.160615 0.22338 0.25705
81 2 6.8268 11.9442 12.0413 0.350621 -0.733417 0.666176
190 3 6.73628 13.2233 3.07244 0.00447016 -0.00755326 -0.518318
285 3 6.77805 13.1986 7.38026 -0.512011 0.207669 -0.17678
8 1 6.12499 13.3006 12.1436 -1.09895 1.18068 -0.605538
126 3 6.73628 16.3346 0.926649 -0.000551547 -0.000977378 0.607353
222 3 6.73628 16.3346 5.21823 0.0711382 -0.0218972 -0.20228
318 3 6.86704 16.2813 9.45049 -0.765162 0.757146 0.427562
266 3 8.02938 15.5221 7.36617 1.31355 0.0589215 -0.182167
41 1 7.45456 16.1948 12.1795 0.998374 -0.476313 0.597254
45 1 6.07078 15.4574 11.8068 0.0138193 -0.0724065 0.584472
85 2 6.59352 16.3249 11.7694 -0.831567 1.22712 -0.953461
154 3 6.73628 17.8903 3.07244 0.0307696 0.00965686 -0.541307
250 3 6.83143 17.9034 7.33545 -0.910556 -0.219673 0.513558
131 3 8.08357 0 0.926649 0.00306503 0.000277233 0.611931
227 3 8.08357 0 5.21823 0.353367 0.123618 -0.158382
323 3 8.18165 0.0176641 9.38867 0.00418323 -0.284651 -0.0898646
159 3 8.08357 1.55571 3.07244 -0.00603479 0.0138219 -0.503605
254 3 8.15154 1.60873 7.37115 -0.0985154 -0.564476 -0.138635
71 2 9.49297 2.01162 12.4983 -0.323652 0.740498 0.695635
11 1 9.98355 1.62562 11.7616 0.761699 -0.414579 -1.023
15 1 9.41494 1.25167 13.0866 0.0624637 -0.502692 0.557557
135 3 9.43086 2.33357 0.926649 0.00422752 0.00192427 0.618574
231 3 9.43086 2.33357 5.21823 0.148259 0.168239 -0.0930754
327 3 9.50795 2.34287 9.45844 0.409471 -0.0307648 -1.00646
163 3 9.43086 3.88919 3.07244 -0.00296593 0.00958119 -0.536181
259 3 9.4942 3.92531 7.35569 -0.418637 -0.474387 0.371391
100 3 8.08357 4.66705 0.926649 0.00773622 -0.0020289 0.60646
196 3 8.08357 4.66705 5.21823 0.145971 0.0412431 -0.126072
172 3 8.08357 6.22276 3.07244 0.0327774 0.00982465 -0.499822
265 3 8.20363 6.26871 7.34122 -1.21608 -0.459782 0.409904
312 3 9.56078 6.92047 9.4956 -0.569095 0.916464 -0.306228
120 3 9.43086 7.00062 0.926649 0.00997537 0.00346793 0.617555
216 3 9.43086 7.00062 5.21823 0.435269 0.252848 -0.203813
31 1 9.89454 8.00033 12.6945 0.955962 -1.61226 0.523953
176 3 9.43086 8.55624 3.07244 0.0138993 0.0339997 -0.512987
272 3 9.50684 8.62232 7.3633 -0.22072 -1.16865 -0.0480427
324 3 8.10414 9.19791 9.42915 0.588094 1.08356 0.194619
132 3 8.08357 9.3341 0.926649 0.00134828 0.00140828 0.607976
228 3 8.08357 9.3341 5.21823 0.267534 0.13484 -0.194174
160 3 8.08357 10.8898 3.07244 -0.000421537 0.00507867 -0.520111
328 3 9.45523 11.5872 9.44831 0.246033 0.547832 -0.201048
17 1 9.7543 11.1182 13.2018 -0.969791 -0.774438 -0.759211
21 1 9.23985 10.5696 11.7845 0.543318 -0.0519574 -1.44873
73 2 9.03681 10.5699 12.728 0.436767 0.73846 2.43496
136 3 9.43086 11.6677 0.926649 0.00111964 -0.00158692 0.601666
232 3 9.43086 11.6677 5.21823 -0.0238063 0.0673854 -0.0084704
164 3 9.43086 13.2233 3.07244 -0.0299481 -0.00201868 -0.499871
260 3 9.34866 13.2567 7.40926 1.15946 -0.632582 -0.55505
292 3 8.09586 13.9029 9.51683 0.231379 0.489837 -0.524306
99 3 8.08357 14.0011 0.926649 -0.00202548 0.000463098 0.609876
195 3 8.08357 14.0011 5.21823 -0.0981409 -0.0324799 -0.259194
24 1 9.37423 15.1196 13.5584 0.690848 -0.3212 0.354471
20 1 9.35043 14.9856 11.9098 -0.536399 0.308131 1.43847
171 3 8.08357 15.5569 3.07244 -0.0217855 -0.0201972 -0.535116
311 3 9.48196 16.3226 9.40978 -0.158889 -0.390321 0.211647
76 2 8.84597 15.2532 12.7716 -0.0281436 -0.0797814 -1.8026
119 3 9.43086 16.3347 0.926649 -4.6969e-05 -0.00684995 0.61083
215 3 9.43086 16.3347 5.21823 -0.0295754 -0.311049 -0.238567
175 3 9.43086 17.8903 3.07244 0.0187328 -0.0334165 -0.51175
271 3 9.51272 17.8205 7.33463 -0.871586 1.18925 0.235214
179 3 10.7781 1.55567 3.07244 0.000634897 0.00809934 -0.526595
275 3 10.8752 1.60265 7.33484 -1.08763 -0.888608 0.675025
107 3 12.1254 2.33352 0.926649 0.00783888 0.00100144 0.620272
203 3 12.1254 2.33352 5.21823 0.336525 -0.0497691 -0.608706
139 3 10.7781 4.667 0.926649 0.0107338 0.00152402 0.609992
183 3 12.1254 3.88924 3.07244 0.0313795 -0.0134314 -0.555372
235 3 10.7781 4.667 5.21823 0.327892 -0.127982 -0.195785
331 3 10.8375 4.66538 9.46443 -0.0659457 -0.462507 0.157655
18 1 10.229 3.93164 12.2267 -0.596047 -0.922867 0.306626
74 2 10.8814 4.60449 12.0363 1.59348 -1.34312 -0.712708
22 1 10.4446 5.42876 12.0829 -1.34315 2.46897 0.429878
148 3 10.7781 6.22272 3.07244 0.00451558 -0.0107647 -0.491937
244 3 10.8054 6.17862 7.35643 0.630699 0.782877 0.190241
144 3 12.1254 7.00057 0.926649 0.0036087 0.00345551 0.613882
240 3 12.1254 7.00057 5.21823 0.230867 -0.00761117 0.162003
27 1 11.2258 7.14587 12.8587 0.741326 0.56512 -0.0684681
79 2 10.2882 7.13846 13.0794 -1.69388 1.20821 -0.54416
104 3 10.7781 9.33405 0.926649 0.00366117 0.00270604 0.60988
168 3 12.1254 8.55629 3.07244 0.0107952 -0.0162029 -0.477773
200 3 10.7781 9.33405 5.21823 0.36304 -0.0154078 -0.262706
296 3 10.911 9.41202 9.42005 -0.831059 -0.583683 0.709948
180 3 10.7781 10.8898 3.07244 -0.000786973 -0.00121661 -0.481901
276 3 10.8432 10.8919 7.34525 -0.861857 0.123747 -0.212688
108 3 12.1254 11.6676 0.926649 -0.000182588 -0.000756726 0.631585
204 3 12.1254 11.6676 5.21823 0.113395 -0.116669 -0.473811
40 1 11.7691 12.3396 13.1369 1.45504 -0.97792 -0.356882
140 3 10.7781 14.0011 0.926649 -0.000659866 -0.00300884 0.611887
184 3 12.1254 13.2233 3.07244 -0.0142473 0.00363458 -0.551574
236 3 10.7781 14.0011 5.21823 -0.288832 -0.021947 -0.176652
280 3 12.1198 13.2129 7.28733 0.0997064 0.137635 0.932711
332 3 10.6558 13.949 9.48106 1.25998 0.064365 -0.182927
84 2 11.0296 12.9255 13.2417 -1.18863 0.671535 1.26406
36 1 10.5773 12.9427 12.3918 -0.136319 0.0798096 -1.0451
7 1 11.9607 14.8077 13.7441 0.366114 0.187654 -0.146658
3 1 12.021 14.9897 12.2631 0.18725 0.35331 0.0847137
147 3 10.7781 15.5568 3.07244 0.00562998 -0.0081598 -0.511075
243 3 10.819 15.5449 7.35456 -0.602878 -0.439701 -0.0293098
143 3 12.1254 16.3347 0.926649 -0.000743061 0.000882487 0.596283
239 3 12.1254 16.3347 5.21823 -0.0221643 0.0572122 -0.567391
2 1 10.7924 17.2014 13.1621 -0.27029 0.763942 -0.928302
103 3 10.7781 18.6682 0.926649 0.000438727 0.00292049 0.611045
167 3 12.1254 17.8904 3.07244 -0.0181758 -0.0127441 -0.541641
199 3 10.7781 18.6682 5.21823 0.193676 0.00532546 -0.17632
295 3 10.716 18.6225 9.46647 0.859099 0.368112 -0.518556
66 2 10.5605 17.9594 12.544 0.74723 -0.3498 1.75994
6 1 10.1084 17.5184 11.8031 -0.292968 -0.26955 -0.578252
123 3 13.4726 4.67265e-05 0.926649 -0.000643506 -0.00189331 0.605398
219 3 13.4726 4.67265e-05 5.21823 0.0703344 -0.268522 -0.216806
151 3 13.4726 1.55567 3.07244 -0.002638 -0.0288632 -0.541344
247 3 13.4806 1.48508 7.32842 0.40649 0.355683 0.89972
299 3 12.1635 2.19299 9.43866 0.0181376 0.357394 -0.100939
279 3 12.2474 3.81247 7.33667 -1.09182 0.813286 0.783576
30 1 12.4435 4.57466 12.1263 0.376112 0.117396 0.0857412
78 2 13.4001 4.35718 11.8972 0.918804 0.0117136 -0.387087
111 3 13.4726 4.6671 0.926649 -0.00106551 0.00165539 0.60848
207 3 13.4726 4.6671 5.21823 0.359102 0.0227938 -0.0629412
303 3 13.5367 4.67572 9.54384 -0.183961 -0.356103 -0.177897
26 1 14.1153 4.99485 12.1852 -0.849739 -0.0732396 0.369661
187 3 13.4726 6.22272 3.07244 -0.00221385 0.00995751 -0.482696
283 3 13.5031 6.17741 7.41787 -0.212183 0.397767 -0.390289
336 3 12.1637 7.12278 9.49946 -0.0429363 -1.35181 -0.0833958
82 2 13.2995 8.038 13.0118 -0.151018 0.157634 0.0270834
264 3 12.2118 8.52404 7.44933 -0.750046 0.0792129 -1.4168
316 3 13.5562 9.21067 9.47696 -0.217885 1.47658 0.34791
38 1 13.3107 8.91065 13.4437 0.107619 0.200523 0.42324
34 1 13.2111 8.33323 12.0808 0.0735193 -0.324791 -0.659682
124 3 13.4726 9.33415 0.926649 0.00180569 -0.000834799 0.616154
220 3 13.4726 9.33415 5.21823 0.0387168 -0.191813 -0.239875
152 3 13.4726 10.8898 3.07244 -0.0176591 -0.0274737 -0.524815
248 3 13.434 10.8405 7.35207 1.04885 0.679162 -0.345539
12 1 13.6573 11.0442 11.9481 -0.0380179 -0.12832 -1.78169
72 2 13.6179 11.0554 12.8969 -1.38239 -0.684523 1.31952
300 3 12.161 11.671 9.37127 -0.234218 0.139586 1.0247
304 3 13.3659 13.9936 9.47231 0.709825 -0.536668 -0.630249
112 3 13.4726 14.0012 0.926649 -0.00372019 -0.00395478 0.607544
208 3 13.4726 14.0012 5.21823 0.11015 -0.00717536 -0.228941
188 3 13.4726 15.5568 3.07244 -0.018463 0.00436836 -0.526206
284 3 13.4443 15.5807 7.32758 0.792907 -0.930863 -0.0243043
335 3 12.177 16.2116 9.39319 -0.905345 0.433211 0.740828
67 2 12.3465 15.4404 13.092 -0.653285 -0.540449 -0.177864
57 1 13.9008 15.6914 12.3334 -0.744345 -0.284261 0.211138
315 3 13.4564 18.4725 9.55776 0.246251 1.01529 -0.819559
263 3 12.1542 17.8364 7.35853 -0.0335011 0.671855 0.140656
10 1 12.7484 18.4379 12.3124 -0.689514 0.0572182 -0.0503931
70 2 13.6124 18.5239 11.8768 0.0348555 0.92278 -0.0623357
14 1 14.1137 17.7162 12.1398 0.415029 -0.579114 -0.100476
127 3 14.8198 2.33348 0.926649 0.00284605 -0.000907811 0.600042
223 3 14.8198 2.33348 5.21823 0.0328889 0.167812 -0.104138
319 3 14.8393 2.20329 9.49459 -0.0612455 0.595492 -0.552764
75 2 14.8968 2.17616 11.789 0.00172355 -1.45715 -0.11497
23 1 14.5143 1.23594 11.9399 0.0427812 0.907276 0.0229305
19 1 14.2085 2.84615 11.9801 -0.588398 0.620133 0.249088
155 3 14.8198 3.88919 3.07244 0.00268103 0.00811064 -0.485023
251 3 14.833 3.88936 7.45643 0.407209 -0.220012 -0.332218
115 3 14.8198 7.00053 0.926649 -0.00566591 -0.00100364 0.619157
211 3 14.8198 7.00053 5.21823 -0.0300702 -0.0302249 0.192125
83 2 15.1753 6.09879 13.3967 -0.588455 0.862298 -0.359337
39 1 15.083 5.92274 14.3451 -0.047946 -0.11906 0.148567
35 1 14.5603 6.9075 13.2466 0.700357 -0.783596 0.211472
307 3 14.8622 7.03288 9.4104 0.136544 -0.661768 0.685485
192 3 14.8198 8.55624 3.07244 0.000966329 0.0124795 -0.473917
287 3 14.8497 8.61949 7.39567 -0.0207935 -1.13328 -1.01152
44 1 15.8242 9.05814 12.217 0.232605 0.240834 0.0360966
128 3 14.8198 11.6676 0.926649 -0.0017269 -0.00459436 0.601283
224 3 14.8198 11.6676 5.21823 -0.0993214 -0.0867651 -0.124204
320 3 14.8338 11.6453 9.39891 -0.052461 0.218951 0.539036
16 1 14.4017 11.5295 13.1491 1.20027 0.67317 0.530425
32 1 15.9649 12.7819 12.0234 0.0451503 0.00649286 -0.51042
156 3 14.8198 13.2233 3.07244 0.00786071 -0.0081045 -0.541279
252 3 14.8431 13.2166 7.35339 -0.349018 0.329911 0.106882
116 3 14.8198 16.3346 0.926649 0.000573934 -0.00239586 0.61858
212 3 14.8198 16.3346 5.21823 -0.0545879 -0.0289205 -0.625021
308 3 14.7877 16.1702 9.44731 0.812969 0.627376 0.082402
93 2 14.6376 16.225 11.976 1.05012 -0.329161 0.249095
61 1 15.4202 15.8216 12.4064 0.433893 0.412541 -0.257224
191 3 14.8198 17.8903 3.07244 0.0196447 -0.00936146 -0.557846
288 3 14.9034 17.8561 7.30671 -1.03635 0.175966 0.7974
290 3 16.1423 18.575 9.38432 0.321777 0.171311 0.277907
