ITEM: TIMESTEP
400000000
ITEM: NUMBER OF ATOMS
336
ITEM: BOX BOUNDS pp pp pp
0.0000000000000000e+00 1.6167135238600000e+01
0.0000000000000000e+00 1.8668199539200000e+01
0.0000000000000000e+00 2.5747400283800001e+01
ITEM: ATOMS id type x y z
117 3 2.61038 1.01172 0.929826
173 3 2.63541 2.49813 3.06547
169 3 1.23247 0.199079 3.08128
145 3 3.98548 0.164008 3.06005
213 3 2.52826 0.900928 5.28348
269 3 2.5734 2.46602 7.36732
309 3 2.66356 1.02281 9.47138
267 3 1.28442 0.132986 7.39084
241 3 3.99233 0.142303 7.40735
37 1 3.02161 1.85575 11.7146
83 2 3.2513 2.03997 12.7152
9 1 3.14096 2.95132 12.7102
7 1 0.196252 1.65677 12.3796
69 2 0.171954 2.95696 13.1856
43 1 0.940058 2.91068 13.7589
157 3 1.17189 4.81886 3.04634
133 3 2.51293 5.59796 0.905695
129 3 1.21763 3.18417 0.955327
177 3 3.99733 4.82343 3.04766
101 3 3.85951 3.26576 0.981355
197 3 3.8861 3.21981 5.27755
225 3 1.2091 3.33164 5.30217
229 3 2.64765 5.61806 5.16544
293 3 3.96647 3.20068 9.4279
255 3 1.21735 4.83636 7.39735
325 3 2.47881 5.5245 9.46491
321 3 1.25487 3.25764 9.53169
273 3 3.91776 4.8744 7.39227
22 1 0.00021962 4.22693 10.4416
53 1 0.299582 3.47458 12.3629
49 1 4.00686 5.37391 12.0269
161 3 2.63321 7.13528 3.05251
98 3 1.35265 7.95505 0.974025
137 3 3.84053 7.90135 1.00265
194 3 1.23732 7.93056 5.21731
257 3 2.5635 7.08294 7.35359
233 3 3.9347 7.91651 5.12921
289 3 1.342 7.81944 9.5193
329 3 3.94219 7.9271 9.46414
61 1 3.02293 9.18171 13.0935
50 1 1.2153 6.74101 11.6699
4 1 1.16628 7.59767 12.9637
73 2 1.0136 6.61906 12.8078
118 3 2.64667 10.2772 0.880505
174 3 2.67037 11.7407 3.03972
170 3 1.35135 9.44699 3.09457
146 3 3.99679 9.57725 3.03948
214 3 2.65066 10.2614 5.25728
270 3 2.70502 11.7288 7.34365
242 3 4.03765 9.45529 7.35337
322 3 1.33551 12.4094 9.61573
268 3 1.24369 9.5053 7.37633
310 3 2.62882 10.135 9.49482
320 3 0.00735172 10.1092 9.40718
60 1 0.788476 11.6503 12.2791
34 1 2.97667 12.3453 11.9679
56 1 0.669186 10.3958 13.4556
88 2 1.87688 9.49943 12.8744
74 2 3.96607 12.3099 11.8205
48 1 1.91796 9.37893 11.8384
158 3 1.3589 14.2071 3.03334
134 3 2.75587 14.9308 0.909988
130 3 1.38548 12.6816 1.05996
116 3 0.0619372 14.9833 1.0054
178 3 3.99804 14.153 2.99129
230 3 2.63156 14.8955 5.22687
226 3 1.31309 12.5663 5.26544
198 3 3.96831 12.5397 5.1741
274 3 3.95504 14.0449 7.37814
256 3 1.30571 14.0118 7.36278
326 3 2.59061 14.8232 9.43737
294 3 3.99443 12.5032 9.35575
81 2 0.116691 14.9031 11.6572
2 1 1.13171 13.2951 12.4371
92 2 1.35501 12.5136 11.8539
162 3 2.67241 16.4703 3.01265
97 3 1.2799 17.2628 0.948523
138 3 3.98492 17.3595 0.906373
193 3 1.32405 17.2571 5.22589
258 3 2.6061 16.3928 7.32032
290 3 1.22882 17.1317 9.4193
330 3 3.95815 17.2021 9.43705
32 1 2.70166 17.1671 12.0245
1 1 0.635507 15.8194 11.6145
95 2 1.62036 17.1773 11.6532
13 1 1.18251 17.8513 12.0514
141 3 5.18372 1.02731 0.912501
165 3 5.26687 2.4492 3.10831
186 3 6.65372 0.146111 3.15509
189 3 7.99858 2.57889 2.97087
114 3 7.91135 0.937867 0.881295
237 3 5.35771 0.994294 5.26872
210 3 8.02373 0.961534 5.19828
306 3 7.99565 0.898109 9.43209
261 3 5.36862 2.53199 7.36802
282 3 6.63031 0.106591 7.40679
333 3 5.34232 0.905141 9.46265
286 3 8.08039 2.57692 7.39337
57 1 6.66463 0.975636 11.8892
71 2 5.57708 0.900834 11.6875
47 1 5.16369 1.34882 12.4668
86 2 8.01307 0.844212 11.9756
149 3 6.60883 4.88314 3.04346
105 3 5.33195 5.60089 0.895001
121 3 6.53948 3.24477 0.992499
125 3 7.90203 5.60295 0.857956
221 3 7.98027 5.6325 5.18771
201 3 5.34991 5.59312 5.08786
217 3 6.67022 3.25647 5.18515
245 3 6.66959 4.77285 7.33165
313 3 6.70318 3.31989 9.45955
297 3 5.30777 5.68506 9.31087
317 3 7.92846 5.56585 9.47534
14 1 5.2153 5.7603 13.6424
72 2 4.33436 4.71768 12.5404
20 1 4.85799 4.21772 12.0385
25 1 7.84866 5.36795 11.8372
109 3 6.64833 7.88915 0.873128
181 3 5.32547 7.10706 2.97101
153 3 8.03293 7.20074 2.94858
205 3 6.74703 7.89777 5.17557
277 3 5.37479 7.19159 7.2581
301 3 6.62798 7.84067 9.39255
35 1 7.99622 8.73696 10.458
39 1 4.44401 8.21401 11.7933
64 1 4.84699 7.73639 13.2399
96 2 5.75627 6.40698 14.135
67 2 4.23621 8.27139 12.7225
62 1 6.71443 6.24392 13.723
142 3 5.29498 10.1954 0.920202
166 3 5.27785 11.8185 3.10165
185 3 6.67168 9.43621 3.05757
190 3 8.02106 11.7389 3.05711
113 3 7.92909 10.2133 1.00654
238 3 5.31668 10.1597 5.21091
285 3 8.01915 11.7704 7.32991
281 3 6.64647 9.43701 7.34886
209 3 7.97172 10.3514 5.17105
262 3 5.28847 11.7265 7.36117
334 3 5.40762 10.0691 9.53091
305 3 8.01314 10.3715 9.55972
28 1 4.46157 11.5104 12.0495
16 1 6.1981 10.2735 11.8562
77 2 5.78735 10.5986 12.7616
3 1 5.13654 9.77038 12.9386
58 1 7.96406 11.5638 12.7856
150 3 6.73753 14.2098 3.09827
106 3 5.28625 14.9651 0.912298
122 3 6.65878 12.7338 1.09143
102 3 4.10691 12.6375 0.946599
202 3 5.31085 14.9401 5.25858
218 3 6.59388 12.5362 5.2218
222 3 7.99702 14.9005 5.24216
246 3 6.59242 14.0893 7.3756
298 3 5.29781 14.7544 9.4607
314 3 6.65406 12.4542 9.37293
51 1 4.78957 15.449 11.9971
33 1 4.91593 13.7413 11.6442
6 1 6.9604 14.7907 11.7942
76 2 5.39566 14.6714 11.8446
78 2 7.98728 14.8787 11.6987
110 3 6.68654 17.3308 1.0113
182 3 5.33322 16.6065 3.05381
234 3 4.06446 17.2896 5.21052
206 3 6.73082 17.3228 5.25544
278 3 5.36091 16.4204 7.38377
302 3 6.71115 17.2631 9.42861
15 1 4.52545 17.8809 11.9153
68 2 4.11435 16.9776 11.7104
135 3 10.8351 0.835408 0.887932
163 3 10.7193 2.47522 3.05675
159 3 9.30789 0.187852 3.05157
179 3 12.0337 0.231364 3.05976
231 3 10.6707 1.02258 5.15243
254 3 9.37444 0.169148 7.34731
259 3 10.6449 2.50008 7.37806
275 3 11.9686 0.166143 7.36374
327 3 10.5938 0.893083 9.40328
5 1 8.72639 1.70684 12.0713
40 1 10.5917 2.97909 12.0599
29 1 8.43862 0.0507927 12.0429
172 3 9.34275 4.85109 3.00543
120 3 10.7954 5.65812 0.979816
139 3 12.1167 3.12838 0.834081
100 3 9.32677 3.34737 0.978872
148 3 11.9958 4.79361 3.05771
196 3 9.30955 3.28387 5.16226
216 3 10.6917 5.64096 5.18143
244 3 12.0407 4.84904 7.29257
235 3 12.0708 3.32943 5.26615
331 3 12.0798 3.46146 9.35893
265 3 9.34036 4.83646 7.37258
291 3 9.38844 3.20454 9.5175
312 3 10.7777 5.60494 9.35831
10 1 9.11531 4.01047 12.1369
85 2 8.32874 5.43464 12.8358
70 2 9.52114 3.15484 11.785
176 3 10.8202 7.13568 2.98284
132 3 9.40781 8.09978 0.999688
104 3 11.9801 8.0063 0.864842
228 3 9.3802 7.94239 5.20226
272 3 10.7425 7.19426 7.21103
200 3 12.0257 8.02653 5.0309
296 3 11.9617 7.90489 9.41356
324 3 9.30762 7.82964 9.42075
249 3 8.14729 7.13164 7.36207
11 1 10.8412 6.9302 11.5754
89 2 10.8956 6.69693 12.5867
8 1 11.7815 6.4163 12.5931
44 1 9.05225 6.26021 12.7803
136 3 10.6879 10.3549 1.0043
164 3 10.7475 11.8202 3.05752
160 3 9.25542 9.55607 3.04659
232 3 10.7053 10.3043 5.20497
276 3 11.9904 9.50133 7.32438
253 3 9.35817 9.4394 7.30914
260 3 10.764 11.7971 7.39618
328 3 10.6322 10.2028 9.40045
55 1 11.0501 10.351 13.4749
66 2 8.70344 12.136 12.6375
26 1 10.2942 11.8989 13.5034
93 2 11.0404 11.3424 13.9442
38 1 8.70582 11.931 11.6524
171 3 9.35132 14.1309 3.14793
119 3 10.7578 14.8797 1.01894
99 3 9.3809 12.677 0.959836
126 3 8.14088 14.883 1.14677
140 3 12.0302 12.6223 1.00709
147 3 12.0812 14.042 3.10735
195 3 9.44441 12.6096 5.2513
215 3 10.7042 14.9296 5.22877
266 3 9.44151 14.0755 7.351
243 3 12.0081 14.1704 7.34897
292 3 9.2528 12.5691 9.41898
332 3 12.0083 12.5435 9.50451
42 1 11.0139 13.6266 10.6912
311 3 10.6787 14.8577 9.51521
318 3 8.12679 14.7841 9.40699
19 1 8.28127 14.12 12.0033
175 3 10.7958 16.5275 3.11835
131 3 9.28689 17.1911 1.01448
103 3 11.9088 17.2465 0.947934
154 3 8.09779 16.5483 3.1496
227 3 9.43425 17.3144 5.1897
271 3 10.7534 16.4761 7.29365
199 3 12.0881 17.2968 5.19738
295 3 12.0756 17.1831 9.42543
323 3 9.43623 17.2218 9.53592
250 3 8.1195 16.5329 7.37494
80 2 12.0478 17.2006 11.6532
63 1 8.69903 16.5242 11.948
79 2 9.17861 17.3313 11.548
41 1 11.0399 17.433 11.9237
107 3 13.3167 0.985519 0.980807
183 3 13.3739 2.60788 3.15822
151 3 14.7489 0.10932 3.05789
155 3 16.0806 2.52167 3.05649
127 3 16.0456 0.847265 0.987232
203 3 13.4064 0.912714 5.32901
223 3 16.0562 0.874542 5.26726
319 3 16.0785 0.962937 9.55598
247 3 14.8008 0.123795 7.51737
279 3 13.3539 2.49943 7.44718
299 3 13.3127 0.969571 9.55293
251 3 16.0964 2.47824 7.4303
17 1 15.28 0.588064 12.1314
91 2 13.3761 0.710719 11.6763
21 1 12.975 1.60632 11.9683
82 2 16.0908 0.736565 11.7791
187 3 14.6549 4.8532 3.03504
144 3 13.2629 5.49915 1.04832
111 3 14.7922 3.22163 0.939972
115 3 16.0741 5.64542 0.931942
240 3 13.3546 5.58407 5.1372
283 3 14.6683 4.79245 7.34922
207 3 14.7895 3.3046 5.25436
211 3 16.0628 5.59821 5.17579
307 3 16.0271 5.66694 9.46079
303 3 14.7072 3.21501 9.45714
336 3 13.3083 5.59493 9.41435
52 1 13.1563 3.99036 13.0958
87 2 12.4846 3.41292 12.6376
54 1 12.5992 3.8266 11.5885
124 3 14.8017 7.92581 0.886524
168 3 13.3364 7.21367 2.89409
192 3 16.0697 7.11638 3.1026
220 3 14.6265 7.91008 5.17648
264 3 13.3153 7.15628 7.26589
287 3 15.9831 7.05783 7.27577
316 3 14.7548 7.97293 9.4818
45 1 13.7408 8.35259 13.0096
84 2 14.1226 6.73172 12.726
46 1 15.056 6.83744 12.8568
23 1 14.0853 6.61037 11.7751
108 3 13.5076 10.2397 0.865677
184 3 13.5171 11.949 2.96368
152 3 14.7769 9.51036 3.02524
180 3 12.2002 9.53232 2.89688
156 3 16.1304 11.8446 3.08306
128 3 16.1498 10.1833 0.979549
204 3 13.3923 10.2248 5.17095
248 3 14.6982 9.39338 7.30158
224 3 16.1317 10.2888 5.14518
252 3 16.1451 11.7629 7.31981
280 3 13.4266 11.8159 7.44383
300 3 13.3294 10.2604 9.4879
65 2 13.5695 9.46045 12.8645
27 1 13.148 9.61122 11.9872
59 1 15.0245 10.3386 13.2876
75 2 15.9306 10.969 13.4375
30 1 12.9846 11.9245 11.5129
18 1 12.9609 12.2808 13.2465
188 3 14.8102 14.182 2.99733
143 3 13.437 15.0207 0.975948
112 3 14.8956 12.4604 0.838294
239 3 13.4448 14.8987 5.23267
208 3 14.8565 12.575 5.22024
212 3 16.1551 14.9441 5.21727
236 3 12.1517 12.5749 5.24165
308 3 16.1057 14.7267 9.46141
284 3 14.7786 14.084 7.38748
335 3 13.4577 14.9093 9.44211
304 3 14.7579 12.5047 9.42462
90 2 13.5276 15.0693 11.8468
12 1 15.2978 15.2332 11.8266
31 1 13.1498 14.074 12.1362
94 2 13.3582 12.6308 12.3861
123 3 14.6378 17.3231 1.03045
167 3 13.4004 16.5119 2.99644
191 3 16.1669 16.5817 3.05076
219 3 14.7541 17.3007 5.2209
288 3 16.0858 16.4747 7.30574
263 3 13.3997 16.6187 7.29299
315 3 14.7 17.1906 9.47532
36 1 12.495 18.0686 11.7347
24 1 13.172 15.9462 11.6053
