ITEM: TIMESTEP
400000000
ITEM: NUMBER OF ATOMS
336
ITEM: BOX BOUNDS pp pp pp
0.0000000000000000e+00 1.6167135238600000e+01
0.0000000000000000e+00 1.8668199539200000e+01
0.0000000000000000e+00 2.5747400283800001e+01
ITEM: ATOMS id type x y z
117 3 2.62185 1.02544 0.907324
173 3 2.63852 2.48424 3.083
169 3 1.27497 0.18675 3.08121
145 3 3.98606 0.184462 3.07616
213 3 2.54297 0.899133 5.30374
269 3 2.56927 2.4493 7.37971
267 3 1.29598 0.131648 7.37578
309 3 2.66252 1.02216 9.46427
241 3 3.98787 0.131193 7.40756
37 1 3.06147 1.86885 11.6874
9 1 3.0744 3.04568 12.5708
83 2 3.26365 2.03818 12.7659
7 1 0.0370574 1.55824 12.3328
69 2 0.181826 2.98038 13.1825
43 1 0.902736 2.73215 13.6835
157 3 1.15536 4.83551 3.04901
133 3 2.51439 5.58375 0.894927
129 3 1.22512 3.16698 0.957937
101 3 3.86139 3.2623 0.976625
177 3 4.00845 4.81598 3.05521
197 3 3.90655 3.20431 5.27454
229 3 2.62545 5.62315 5.14531
225 3 1.21154 3.31151 5.31139
273 3 3.90358 4.8598 7.37503
255 3 1.25317 4.84417 7.38546
325 3 2.46454 5.53463 9.46373
321 3 1.26393 3.26543 9.56535
293 3 3.9705 3.22746 9.43306
49 1 3.86392 5.2965 11.7749
53 1 0.382152 3.44242 12.2819
161 3 2.63001 7.1619 3.03538
98 3 1.37354 7.95777 0.967836
137 3 3.843 7.89088 0.998464
194 3 1.24046 7.95271 5.22514
257 3 2.56235 7.10047 7.31693
233 3 3.91408 7.91982 5.12927
289 3 1.34557 7.83681 9.52099
329 3 3.95415 7.91635 9.45369
50 1 1.39914 6.58285 11.7525
73 2 0.984909 6.62844 12.7284
4 1 1.14263 7.50586 12.9886
61 1 2.97982 8.97075 13.061
118 3 2.68087 10.2726 0.871405
174 3 2.65378 11.7366 3.05125
170 3 1.35565 9.45755 3.0949
146 3 3.97502 9.57041 3.03922
128 3 0.0106783 10.2016 1.00243
214 3 2.63966 10.2588 5.25843
270 3 2.70875 11.7214 7.32457
242 3 4.03224 9.48746 7.37471
268 3 1.22581 9.49227 7.35872
310 3 2.62734 10.1526 9.48402
322 3 1.33344 12.4062 9.61818
60 1 0.993794 11.8401 12.3863
34 1 3.13372 12.4192 11.971
56 1 0.668481 10.3834 13.3567
88 2 1.87546 9.45704 12.8093
48 1 2.09391 9.48629 11.866
158 3 1.36877 14.2295 3.04975
134 3 2.75716 14.9119 0.906424
130 3 1.39557 12.6929 1.07986
116 3 0.0826915 14.995 1.04443
178 3 4.00802 14.1469 2.98089
198 3 3.96891 12.5647 5.15284
226 3 1.30876 12.5963 5.27228
230 3 2.64866 14.9198 5.21843
274 3 3.96555 14.046 7.36132
256 3 1.30388 14.0101 7.36776
326 3 2.57975 14.8181 9.40983
294 3 3.98454 12.5342 9.37586
92 2 1.32321 12.4858 11.8665
2 1 1.05262 13.3496 12.186
81 2 0.136379 14.9137 11.6754
162 3 2.68554 16.4924 3.0005
97 3 1.26677 17.2375 0.984954
138 3 3.97849 17.352 0.936881
193 3 1.31161 17.2737 5.22173
258 3 2.61085 16.3876 7.33827
290 3 1.23398 17.1262 9.40362
330 3 3.9751 17.1866 9.43616
95 2 1.62472 17.152 11.6183
13 1 1.09468 18.0138 11.9485
32 1 2.84393 17.2779 11.5441
1 1 0.52272 15.8275 11.6431
141 3 5.19478 1.02302 0.932246
165 3 5.28095 2.44032 3.10234
186 3 6.67218 0.147402 3.13742
114 3 7.91867 0.934052 0.878448
189 3 8.00858 2.60141 2.9657
237 3 5.33752 1.01068 5.28726
261 3 5.33752 2.54054 7.35553
210 3 8.05155 0.960867 5.209
306 3 7.97553 0.90798 9.42543
286 3 8.08259 2.57722 7.39881
282 3 6.64109 0.0951675 7.42049
333 3 5.35723 0.91042 9.46162
47 1 5.06929 1.51699 12.1742
71 2 5.56265 0.865819 11.6515
57 1 6.43442 0.740995 11.9693
86 2 8.01458 0.871854 11.9322
149 3 6.6128 4.88518 3.04748
105 3 5.31867 5.60298 0.883904
121 3 6.5423 3.24564 0.990784
125 3 7.92538 5.59732 0.853733
201 3 5.38829 5.58703 5.075
217 3 6.63681 3.23766 5.17082
245 3 6.6566 4.75658 7.35626
221 3 7.97191 5.63631 5.19945
317 3 7.9699 5.55357 9.47775
313 3 6.6793 3.31022 9.45208
297 3 5.31052 5.67756 9.30347
25 1 7.89805 5.34525 11.7704
72 2 4.33315 4.72813 12.5302
14 1 5.17532 5.72433 13.6099
20 1 4.95982 4.16159 12.0246
109 3 6.636 7.87871 0.886971
181 3 5.34038 7.10331 2.9782
153 3 8.02311 7.16692 2.96672
205 3 6.77135 7.87727 5.15201
277 3 5.35349 7.20042 7.23383
301 3 6.63319 7.86102 9.38727
62 1 6.60249 6.2761 13.6972
67 2 4.22355 8.32645 12.6632
64 1 4.8269 7.62714 13.0624
39 1 4.49811 8.01512 11.7921
96 2 5.79048 6.4299 14.1527
142 3 5.3007 10.1991 0.914283
166 3 5.29371 11.8021 3.09527
185 3 6.68399 9.44246 3.06452
190 3 8.02627 11.7547 3.06737
113 3 7.91018 10.2156 1.01403
238 3 5.30866 10.1479 5.20999
281 3 6.66816 9.43334 7.34916
285 3 8.01828 11.7709 7.33591
209 3 7.98481 10.3293 5.14598
305 3 8.01277 10.3597 9.55196
262 3 5.27565 11.7239 7.36419
334 3 5.41489 10.0405 9.51923
28 1 4.50435 11.4765 12.2406
3 1 5.2689 9.7586 12.963
58 1 7.79164 11.351 12.9662
16 1 6.09154 10.4286 11.9418
77 2 5.8025 10.6018 12.7992
74 2 4.0568 12.2697 11.8632
150 3 6.74215 14.19 3.09045
106 3 5.28598 14.9578 0.906561
122 3 6.64702 12.7223 1.09188
102 3 4.09046 12.6022 0.93233
222 3 7.996 14.9007 5.23958
202 3 5.31903 14.935 5.2375
218 3 6.60668 12.5439 5.22578
314 3 6.64633 12.5002 9.38128
246 3 6.61278 14.1093 7.3906
298 3 5.32104 14.749 9.48731
76 2 5.37375 14.6399 11.8193
6 1 6.98867 14.9944 12.0707
33 1 5.03404 13.8177 12.005
78 2 7.99353 14.7963 11.7329
51 1 4.78602 15.4885 11.9755
110 3 6.69615 17.3216 1.01641
182 3 5.31404 16.5794 3.04847
206 3 6.73861 17.344 5.24296
234 3 4.06671 17.279 5.20502
278 3 5.35274 16.4232 7.39213
302 3 6.68406 17.2908 9.43102
68 2 4.08133 17.0535 11.6239
15 1 4.4604 17.8314 12.1209
135 3 10.8297 0.844899 0.891691
163 3 10.7203 2.49248 3.05414
159 3 9.3122 0.180956 3.05354
179 3 12.0403 0.218344 3.06627
231 3 10.7021 0.996889 5.15899
254 3 9.38042 0.1642 7.33832
275 3 11.9879 0.169564 7.36817
259 3 10.6522 2.5135 7.38526
327 3 10.5963 0.90518 9.40369
5 1 8.5414 1.73887 12.0682
40 1 10.4092 3.00371 12.1452
172 3 9.33743 4.8626 2.98251
120 3 10.8061 5.6231 0.985025
148 3 11.9731 4.79312 3.05319
100 3 9.30535 3.33822 0.981568
139 3 12.1102 3.11442 0.850696
244 3 12.0259 4.87108 7.29605
196 3 9.31091 3.28795 5.16013
216 3 10.6592 5.65689 5.17769
235 3 12.0582 3.31034 5.27244
265 3 9.34874 4.88047 7.37645
291 3 9.40848 3.22044 9.50533
331 3 12.0971 3.4886 9.35306
312 3 10.721 5.5732 9.33628
70 2 9.50681 3.17932 11.8012
44 1 8.92693 6.13687 12.7974
10 1 9.19274 4.09716 11.9771
85 2 8.25837 5.47311 12.7964
176 3 10.8118 7.17446 2.98245
132 3 9.41555 8.09607 1.00863
104 3 11.9761 8.01076 0.850164
200 3 12.0539 8.02949 5.04818
228 3 9.40921 7.91962 5.15926
272 3 10.743 7.21264 7.24222
249 3 8.12425 7.12375 7.34655
324 3 9.29178 7.83843 9.4292
296 3 11.9894 7.89491 9.38928
35 1 8.19938 8.62795 10.6344
11 1 10.9007 7.10535 11.6881
89 2 10.8858 6.68557 12.6083
8 1 11.8765 6.51162 12.7031
136 3 10.6566 10.371 1.01331
164 3 10.7526 11.8271 3.07442
160 3 9.28597 9.56382 3.04235
232 3 10.6884 10.3237 5.18608
276 3 11.9786 9.46938 7.33986
253 3 9.36777 9.4534 7.30969
260 3 10.7522 11.8021 7.3931
328 3 10.6343 10.2088 9.40677
38 1 8.87886 11.9602 11.6336
93 2 11.0947 11.3752 13.9095
55 1 11.1385 10.5162 13.6369
26 1 10.2319 11.8354 13.6039
66 2 8.64716 12.1192 12.6058
171 3 9.34786 14.1117 3.15916
119 3 10.7446 14.8925 0.976711
99 3 9.36878 12.6502 0.9727
126 3 8.10035 14.8889 1.16192
140 3 12.0431 12.6197 0.994004
147 3 12.079 14.0331 3.114
266 3 9.4472 14.0803 7.31105
195 3 9.46239 12.5886 5.24786
215 3 10.7167 14.9274 5.24287
243 3 12.0104 14.2011 7.34619
332 3 11.9935 12.5455 9.49354
292 3 9.23208 12.607 9.4363
42 1 11.0053 13.4843 10.5211
311 3 10.6823 14.8598 9.51748
318 3 8.1423 14.8207 9.41091
19 1 8.39347 13.8988 12.0913
175 3 10.784 16.5172 3.1099
131 3 9.30091 17.1829 0.964554
103 3 11.9039 17.2168 0.944211
154 3 8.09055 16.5374 3.131
227 3 9.4179 17.3012 5.19488
271 3 10.746 16.4686 7.29482
199 3 12.0738 17.2654 5.22984
323 3 9.41639 17.2486 9.51363
295 3 12.114 17.1993 9.45307
250 3 8.13931 16.5282 7.38406
80 2 12.1002 17.2724 11.6397
41 1 11.1807 17.4732 11.9972
63 1 8.76001 16.4771 11.9674
79 2 9.25869 17.2711 11.5624
29 1 8.61846 18.6489 12.0748
107 3 13.3209 0.962182 0.965117
183 3 13.3868 2.59819 3.16177
151 3 14.7221 0.133512 3.06947
155 3 16.0896 2.52252 3.06919
127 3 16.0322 0.874999 0.984025
203 3 13.4045 0.901984 5.32205
223 3 16.0878 0.848728 5.27561
247 3 14.7795 0.164122 7.50026
279 3 13.3481 2.48415 7.42411
299 3 13.3031 0.961893 9.54562
319 3 16.0804 0.954946 9.5377
251 3 16.0954 2.48612 7.41494
91 2 13.3377 0.731688 11.6236
21 1 12.8819 1.54426 12.0975
17 1 15.1241 0.528733 12.1065
82 2 16.0773 0.74464 11.7733
187 3 14.6626 4.87422 3.03866
144 3 13.2767 5.50662 1.01675
111 3 14.7787 3.21166 0.962246
115 3 16.0861 5.65181 0.949206
240 3 13.3607 5.60118 5.16201
211 3 16.08 5.57261 5.15035
283 3 14.6432 4.80789 7.33694
207 3 14.7862 3.34043 5.24547
303 3 14.698 3.23074 9.44839
336 3 13.2873 5.60725 9.40745
307 3 15.9898 5.64927 9.44901
22 1 16.029 4.02151 10.304
54 1 12.6348 3.7157 11.6682
87 2 12.4475 3.4391 12.5935
52 1 13.0264 4.04424 13.1527
124 3 14.7954 7.93897 0.893686
168 3 13.3324 7.22371 2.88092
192 3 16.0656 7.13522 3.07279
220 3 14.6404 7.90107 5.15154
264 3 13.3201 7.15041 7.27245
287 3 15.9534 7.0919 7.29499
316 3 14.7581 7.95374 9.4754
45 1 13.9378 8.47432 12.9781
23 1 14.0135 6.63893 11.7663
46 1 15.3017 6.77663 12.5923
84 2 14.1968 6.75953 12.7855
108 3 13.5189 10.257 0.835273
184 3 13.551 11.9369 2.93772
152 3 14.7521 9.51494 3.01694
156 3 16.1446 11.8323 3.07011
180 3 12.1752 9.55199 2.89997
204 3 13.3873 10.2295 5.16988
248 3 14.7068 9.40567 7.28681
224 3 16.1215 10.2881 5.14092
252 3 16.1468 11.7199 7.30349
280 3 13.4145 11.8112 7.43119
300 3 13.3398 10.2333 9.47082
320 3 16.1613 10.0951 9.40171
65 2 13.5132 9.40735 12.9138
59 1 14.9776 10.3883 13.2841
30 1 13.0395 12.1281 11.6637
27 1 13.3138 9.45617 12.0489
75 2 15.9187 10.9592 13.4241
18 1 12.828 12.3695 13.1048
188 3 14.8395 14.192 2.98875
143 3 13.4251 15.0048 0.971073
112 3 14.8898 12.4583 0.848708
212 3 16.1478 14.9331 5.20291
208 3 14.8567 12.5881 5.2033
239 3 13.4534 14.8999 5.22923
236 3 12.153 12.5886 5.26822
308 3 16.1277 14.7341 9.46557
284 3 14.7578 14.0875 7.36126
335 3 13.4863 14.909 9.44905
304 3 14.7577 12.5003 9.43333
94 2 13.3324 12.6631 12.3131
12 1 15.2672 15.2312 11.8484
31 1 13.4086 14.07 12.0933
90 2 13.5466 15.0785 11.8409
123 3 14.6305 17.3266 1.02959
167 3 13.3747 16.5068 3.01612
191 3 16.1589 16.5813 3.02014
219 3 14.7377 17.311 5.20722
263 3 13.4085 16.6172 7.28814
288 3 16.1028 16.4728 7.3339
315 3 14.7047 17.191 9.44524
24 1 13.0207 15.9313 11.7884
36 1 12.7325 18.2359 11.7053
