ITEM: TIMESTEP
400000000
ITEM: NUMBER OF ATOMS
336
ITEM: BOX BOUNDS pp pp pp
0.0000000000000000e+00 1.6167135238600000e+01
0.0000000000000000e+00 1.8668199539200000e+01
0.0000000000000000e+00 2.5747400283800001e+01
ITEM: ATOMS id type x y z
117 3 2.61862 1.025 0.947527
173 3 2.61949 2.48904 3.07974
169 3 1.23905 0.17179 3.0751
145 3 4.00193 0.15863 3.09137
213 3 2.52177 0.889258 5.26915
269 3 2.59653 2.44167 7.38535
241 3 4.00979 0.136315 7.38243
267 3 1.30426 0.105771 7.3878
309 3 2.66679 1.03745 9.44682
37 1 3.15027 1.83015 11.6105
83 2 3.24726 2.05235 12.6571
7 1 0.112831 1.64982 12.3271
69 2 0.119972 2.96849 13.2158
43 1 0.999702 2.97691 13.8364
157 3 1.15445 4.84591 3.05081
133 3 2.52029 5.57445 0.913938
129 3 1.23835 3.17717 0.977431
101 3 3.8983 3.27323 0.998176
177 3 3.96184 4.81549 3.04021
225 3 1.22321 3.33013 5.3206
229 3 2.64379 5.6336 5.14751
197 3 3.89182 3.23549 5.27062
293 3 3.96281 3.19935 9.42185
255 3 1.22997 4.82962 7.39586
325 3 2.50264 5.53387 9.47557
321 3 1.26408 3.26247 9.52897
273 3 3.87761 4.84945 7.37983
53 1 0.330406 3.63636 12.5012
9 1 3.07312 3.15082 12.6704
161 3 2.60252 7.10008 3.02559
98 3 1.35008 7.95821 0.957122
137 3 3.87633 7.91909 1.00682
194 3 1.24766 7.933 5.23021
257 3 2.55944 7.07628 7.31533
233 3 3.93239 7.90697 5.12691
289 3 1.3411 7.82681 9.53036
329 3 3.91567 7.92038 9.43571
73 2 0.942007 6.61502 12.7841
4 1 1.00838 7.69965 12.9724
61 1 2.79375 9.27386 12.8958
50 1 1.14224 6.79008 11.739
118 3 2.67679 10.2508 0.886812
174 3 2.67475 11.7277 3.05531
170 3 1.3409 9.46817 3.0741
146 3 3.99323 9.58494 3.04132
128 3 0.0145565 10.1997 1.00752
242 3 4.03351 9.47563 7.33078
214 3 2.65674 10.2477 5.23776
270 3 2.69272 11.716 7.3502
268 3 1.23199 9.51128 7.36922
310 3 2.64365 10.1478 9.47393
322 3 1.33021 12.4085 9.6173
56 1 0.74454 10.4493 13.3793
60 1 0.564067 11.9429 12.2609
48 1 1.83822 9.46471 11.9
88 2 1.90727 9.47357 12.8754
74 2 3.95337 12.2445 11.8897
34 1 3.02416 12.3986 11.9323
158 3 1.36475 14.228 3.0479
134 3 2.76173 14.9097 0.892392
130 3 1.36618 12.6669 1.06997
116 3 0.059071 14.9943 1.00966
178 3 4.02545 14.1565 2.98368
226 3 1.3424 12.5694 5.26557
230 3 2.62858 14.9236 5.21448
198 3 3.99338 12.5374 5.172
274 3 3.96506 14.0498 7.36829
256 3 1.2953 13.9853 7.39263
326 3 2.58686 14.8501 9.4149
294 3 3.98757 12.5068 9.39351
2 1 1.14931 13.2097 12.3152
81 2 0.0606308 14.9141 11.6851
92 2 1.38113 12.4601 11.9215
162 3 2.67604 16.4789 3.01489
97 3 1.29563 17.2588 0.918302
138 3 3.98259 17.3779 0.90066
193 3 1.31909 17.2565 5.21332
258 3 2.59264 16.4077 7.32646
290 3 1.2483 17.1231 9.40661
330 3 3.95362 17.1904 9.45848
1 1 0.606124 15.8545 11.3999
95 2 1.64658 17.1606 11.6437
32 1 2.62019 17.2114 11.7924
13 1 1.14765 18.0184 12.0455
141 3 5.19521 1.03175 0.916161
165 3 5.26959 2.45649 3.12466
186 3 6.65945 0.148341 3.12958
114 3 7.91106 0.929664 0.877883
189 3 7.97836 2.5869 2.95665
237 3 5.37058 1.00186 5.28064
210 3 8.04486 0.952154 5.17696
261 3 5.36002 2.53896 7.36662
282 3 6.63484 0.0860063 7.41185
333 3 5.3367 0.891436 9.46735
306 3 7.97282 0.926291 9.41679
86 2 7.97593 0.907667 12.014
57 1 6.60698 1.07109 12.0521
47 1 5.00868 1.40473 12.2809
71 2 5.57086 0.925854 11.7576
149 3 6.6214 4.8744 3.06224
105 3 5.33268 5.59317 0.885337
121 3 6.53266 3.23384 0.98771
125 3 7.91502 5.5996 0.859459
201 3 5.36315 5.59465 5.10486
217 3 6.68055 3.23432 5.16292
245 3 6.65505 4.78114 7.34093
221 3 7.98627 5.61954 5.19362
317 3 7.93401 5.5555 9.4644
313 3 6.71652 3.3063 9.43921
297 3 5.29182 5.67796 9.3302
72 2 4.26762 4.76824 12.5299
14 1 5.23202 5.77077 13.6461
25 1 8.02429 5.41707 11.7386
20 1 4.9416 4.05821 12.2078
49 1 4.08246 5.43398 11.8727
109 3 6.64149 7.88362 0.853447
181 3 5.33727 7.09409 2.97129
153 3 8.03424 7.16738 2.95799
205 3 6.76251 7.91622 5.18295
277 3 5.36501 7.1646 7.22878
301 3 6.61702 7.84879 9.40359
35 1 7.8336 8.96281 10.3594
39 1 4.36224 8.20433 11.6183
64 1 4.80204 7.61684 13.1724
96 2 5.82193 6.42726 14.1212
67 2 4.22459 8.28731 12.7157
62 1 6.66638 6.45739 13.6844
142 3 5.32759 10.2252 0.904247
166 3 5.29044 11.8218 3.1044
185 3 6.67534 9.43173 3.05348
190 3 8.01291 11.7749 3.0773
113 3 7.92057 10.2195 1.02149
209 3 7.95622 10.3667 5.16522
238 3 5.33283 10.1643 5.18541
281 3 6.64109 9.44395 7.35302
285 3 7.9948 11.7771 7.33336
262 3 5.27658 11.7252 7.35887
334 3 5.41747 10.054 9.4984
305 3 8.00228 10.3782 9.54605
3 1 5.21298 9.73262 13.0521
16 1 6.32535 10.2624 12.0316
77 2 5.78817 10.5865 12.7815
28 1 4.44015 11.5689 12.2049
58 1 7.82848 11.6991 12.9579
150 3 6.74719 14.202 3.09961
106 3 5.2828 14.9895 0.91544
122 3 6.66285 12.7106 1.0742
102 3 4.09422 12.6191 0.919939
222 3 7.98409 14.8859 5.25285
202 3 5.32982 14.9366 5.25454
218 3 6.60547 12.5582 5.23921
314 3 6.66051 12.4594 9.36048
246 3 6.60344 14.0779 7.3853
298 3 5.29737 14.7503 9.46469
6 1 6.90988 14.7486 11.9496
76 2 5.37404 14.6939 11.8517
33 1 4.96907 13.7862 11.9827
78 2 7.94937 14.7691 11.6862
110 3 6.67577 17.3156 0.984094
182 3 5.33116 16.5858 3.03885
234 3 4.05617 17.2945 5.21078
206 3 6.74027 17.3265 5.22031
278 3 5.35174 16.4033 7.39205
302 3 6.70984 17.293 9.45178
68 2 4.04466 16.972 11.6765
15 1 4.49027 18.0038 12.0111
51 1 4.69564 15.5593 11.8425
135 3 10.8254 0.849358 0.919314
163 3 10.7223 2.50045 3.05265
159 3 9.31285 0.172915 3.06898
179 3 12.062 0.181643 3.06995
139 3 12.1017 3.10626 0.836478
231 3 10.6936 0.980228 5.17319
254 3 9.38262 0.13856 7.33429
259 3 10.619 2.50089 7.38205
327 3 10.5748 0.905248 9.42373
275 3 11.9664 0.176847 7.37972
286 3 8.08583 2.56808 7.41143
5 1 8.759 1.66603 11.8164
29 1 8.40052 0.146855 11.9106
40 1 10.4334 2.95288 12.1883
172 3 9.34225 4.85923 2.98522
120 3 10.8208 5.63522 0.977151
100 3 9.3436 3.34882 1.00221
148 3 12.0195 4.79083 3.06008
196 3 9.29543 3.2774 5.14245
216 3 10.668 5.64699 5.17406
244 3 12.0266 4.86527 7.29036
235 3 12.0912 3.32109 5.26714
331 3 12.0804 3.44057 9.33594
265 3 9.35111 4.84214 7.36407
312 3 10.7671 5.61239 9.33702
291 3 9.39045 3.2037 9.48594
70 2 9.49807 3.16151 11.8074
85 2 8.34702 5.45679 12.789
10 1 9.16695 3.9441 12.1834
176 3 10.8018 7.16439 2.98349
132 3 9.39621 8.08827 0.989555
104 3 11.9809 8.00724 0.865695
228 3 9.38364 7.93432 5.20795
272 3 10.7222 7.20072 7.21942
200 3 12.0354 8.02059 5.02056
249 3 8.12169 7.12148 7.319
296 3 11.9627 7.91477 9.38609
324 3 9.31566 7.83242 9.43491
89 2 10.8221 6.66294 12.5882
11 1 10.8471 6.85138 11.5243
8 1 11.9375 6.29614 12.7052
44 1 9.05433 6.35016 12.7121
136 3 10.6796 10.3659 1.01328
164 3 10.7472 11.8251 3.10695
160 3 9.2677 9.5507 3.09187
232 3 10.7056 10.2999 5.18456
276 3 12.0076 9.51125 7.3441
253 3 9.34932 9.45252 7.28662
260 3 10.7644 11.7933 7.41825
328 3 10.6284 10.2112 9.42073
38 1 8.57074 11.8746 11.573
66 2 8.68509 12.1974 12.6012
93 2 11.0642 11.3727 13.8651
26 1 10.3511 11.7185 13.5441
55 1 11.2148 10.4402 13.7487
171 3 9.38261 14.128 3.13576
119 3 10.7731 14.8704 1.0127
99 3 9.36337 12.6844 0.971235
147 3 12.0507 14.0298 3.11507
126 3 8.11561 14.8793 1.12635
140 3 12.045 12.619 1.01847
266 3 9.44145 14.082 7.33007
215 3 10.7193 14.9333 5.25857
195 3 9.44539 12.6025 5.26436
243 3 11.9877 14.1758 7.35118
236 3 12.1248 12.5753 5.26104
332 3 12.0127 12.5331 9.51059
42 1 10.8103 13.7581 10.6883
311 3 10.7015 14.8487 9.50056
292 3 9.25635 12.5776 9.39594
318 3 8.13008 14.8187 9.40268
19 1 8.42726 13.9937 11.9294
175 3 10.7687 16.5313 3.10632
131 3 9.27238 17.2012 0.991892
103 3 11.921 17.2192 0.950319
154 3 8.10099 16.5314 3.10646
227 3 9.44142 17.3228 5.18502
271 3 10.7465 16.4841 7.28584
199 3 12.0824 17.2868 5.1885
323 3 9.43579 17.2122 9.53653
295 3 12.0716 17.1999 9.44028
250 3 8.13945 16.5192 7.37795
79 2 9.21406 17.3346 11.601
80 2 12.0673 17.2149 11.6633
63 1 8.97359 16.4805 12.1455
41 1 11.0134 17.4528 12.0768
107 3 13.3232 0.959979 0.994766
183 3 13.3846 2.59727 3.18858
151 3 14.7472 0.101493 3.04699
127 3 16.0434 0.829002 0.970677
155 3 16.0572 2.53029 3.06295
203 3 13.4023 0.892016 5.31292
223 3 16.0771 0.863079 5.26126
319 3 16.0971 0.957819 9.53362
247 3 14.7806 0.147866 7.51283
279 3 13.3638 2.49511 7.46499
299 3 13.3205 0.984719 9.54448
251 3 16.0895 2.47207 7.41038
91 2 13.2994 0.722569 11.6607
17 1 15.165 0.561581 12.0482
21 1 13.2126 1.60891 12.0278
82 2 16.1024 0.759101 11.7684
187 3 14.6679 4.85484 3.02038
144 3 13.2515 5.48712 1.04277
111 3 14.7714 3.20417 0.952669
115 3 16.0946 5.64264 0.959034
240 3 13.3455 5.56723 5.1523
207 3 14.782 3.31975 5.23603
211 3 16.0492 5.57231 5.15976
283 3 14.6464 4.81021 7.3592
303 3 14.6759 3.24942 9.46003
336 3 13.289 5.56234 9.42612
307 3 16.003 5.6532 9.45589
22 1 16.1196 4.12195 10.6639
87 2 12.4567 3.40121 12.6227
52 1 13.0159 3.91808 13.2667
54 1 12.6515 3.69795 11.6657
124 3 14.8116 7.92245 0.887921
168 3 13.3268 7.21792 2.8733
192 3 16.0823 7.11468 3.09823
220 3 14.6404 7.89507 5.1726
264 3 13.3585 7.18579 7.27359
287 3 15.9589 7.07476 7.3059
316 3 14.7457 7.9654 9.47312
46 1 15.1062 6.76885 12.5861
45 1 13.7655 8.51011 12.9964
84 2 14.1363 6.74415 12.7283
23 1 13.8293 6.85963 11.8687
108 3 13.5098 10.2287 0.854272
184 3 13.5419 11.9127 2.97516
152 3 14.7784 9.49989 3.02234
156 3 16.1303 11.85 3.09833
180 3 12.1936 9.54905 2.89465
204 3 13.4028 10.1997 5.16277
248 3 14.6951 9.39411 7.30837
224 3 16.1246 10.2974 5.15541
252 3 16.1615 11.7412 7.3187
280 3 13.4387 11.8155 7.42921
300 3 13.3419 10.2423 9.50311
320 3 16.1565 10.0876 9.40951
65 2 13.524 9.48828 12.9093
27 1 13.2722 9.65866 12.0745
59 1 15.3297 10.1926 13.3041
75 2 15.928 10.9298 13.4252
18 1 12.9317 12.3609 13.2245
30 1 13.125 12.0769 11.5717
188 3 14.7997 14.162 3.0079
143 3 13.4148 15.0042 0.978148
112 3 14.8795 12.4625 0.821306
239 3 13.4418 14.8929 5.21969
208 3 14.8834 12.5932 5.20902
284 3 14.7916 14.0771 7.35214
212 3 16.1545 14.9586 5.18554
335 3 13.4606 14.9176 9.4414
308 3 16.0854 14.7464 9.46402
304 3 14.7789 12.5169 9.41886
12 1 15.1521 15.0565 11.6556
94 2 13.3616 12.6995 12.3556
31 1 13.2876 13.9745 11.9907
90 2 13.559 15.0308 11.8282
123 3 14.6682 17.3547 1.00833
167 3 13.3798 16.5078 2.99643
191 3 16.1443 16.5709 3.06072
219 3 14.7816 17.2678 5.2146
263 3 13.4269 16.6119 7.29291
288 3 16.1049 16.4632 7.32687
315 3 14.7129 17.2078 9.45516
24 1 13.2721 15.9295 11.6318
36 1 12.5432 18.1797 11.593
