ITEM: TIMESTEP
400000000
ITEM: NUMBER OF ATOMS
336
ITEM: BOX BOUNDS pp pp pp
0.0000000000000000e+00 1.6167135238600000e+01
0.0000000000000000e+00 1.8668199539200000e+01
0.0000000000000000e+00 2.5747400283800001e+01
ITEM: ATOMS id type x y z
117 3 2.62214 0.996624 0.941473
173 3 2.64055 2.5024 3.06979
169 3 1.24702 0.20145 3.09094
145 3 3.98789 0.177987 3.06209
213 3 2.53651 0.89419 5.28407
309 3 2.64675 1.02077 9.46746
269 3 2.58341 2.44575 7.36035
267 3 1.27822 0.12818 7.38509
241 3 3.99145 0.127922 7.41378
37 1 3.14217 1.83268 11.8046
83 2 3.25308 2.01034 12.7348
69 2 0.160993 2.96048 13.1619
7 1 0.0476127 1.61639 12.3093
9 1 3.01893 2.95726 12.751
43 1 0.953327 2.86857 13.7696
157 3 1.16783 4.82593 3.04049
133 3 2.51598 5.60546 0.908074
129 3 1.22367 3.19286 0.9575
177 3 4.00172 4.81739 3.03585
101 3 3.85519 3.26757 0.979624
225 3 1.19892 3.31784 5.30353
229 3 2.64432 5.61692 5.1688
197 3 3.89581 3.21832 5.28677
293 3 3.96827 3.20162 9.43127
273 3 3.92007 4.86725 7.38171
255 3 1.2156 4.8421 7.40933
325 3 2.48535 5.51528 9.46557
321 3 1.25662 3.27296 9.55059
49 1 3.92681 5.3139 12.0296
53 1 0.353749 3.48027 12.2844
161 3 2.63371 7.13312 3.03372
98 3 1.34454 7.95717 0.968473
137 3 3.84528 7.88213 1.00412
194 3 1.23156 7.93678 5.21735
257 3 2.55464 7.10015 7.3383
233 3 3.93328 7.91826 5.12675
289 3 1.33631 7.81895 9.51991
329 3 3.94252 7.92852 9.46694
4 1 1.29371 7.55202 12.9918
61 1 2.92799 9.10246 12.917
50 1 1.26171 6.78185 11.7353
73 2 1.01922 6.63999 12.8285
118 3 2.66651 10.2771 0.89512
174 3 2.66726 11.7317 3.04478
170 3 1.35368 9.4378 3.09836
146 3 3.98036 9.576 3.04099
214 3 2.66445 10.2564 5.2623
270 3 2.7025 11.7361 7.32185
242 3 4.04094 9.46048 7.3511
268 3 1.2353 9.50542 7.36685
310 3 2.62744 10.1147 9.48653
322 3 1.33495 12.4137 9.63349
320 3 0.00954804 10.1191 9.39974
56 1 0.645566 10.3664 13.4846
60 1 0.885684 11.7085 12.3203
88 2 1.91394 9.50604 12.9117
34 1 2.94257 12.3322 12.0471
74 2 3.9682 12.2971 11.8548
48 1 1.79611 9.48807 11.9097
158 3 1.35951 14.2115 3.03036
134 3 2.76021 14.9321 0.909327
130 3 1.38243 12.6772 1.0639
116 3 0.0762332 14.98 1.01075
178 3 3.99833 14.1479 2.98964
226 3 1.3048 12.5714 5.26258
230 3 2.64808 14.8989 5.23331
198 3 3.96559 12.5517 5.17216
274 3 3.97321 14.0271 7.37802
256 3 1.30046 14.0195 7.37514
326 3 2.58561 14.8321 9.42736
294 3 3.98041 12.5124 9.36373
81 2 0.15094 14.9145 11.6423
2 1 1.10175 13.3812 12.2107
92 2 1.3411 12.5032 11.8092
162 3 2.682 16.4737 3.01148
97 3 1.28132 17.2567 0.960529
138 3 3.99538 17.3525 0.905926
193 3 1.32 17.2565 5.22667
258 3 2.60349 16.3934 7.32776
330 3 3.96278 17.1937 9.44164
290 3 1.2423 17.1231 9.40733
95 2 1.59053 17.1378 11.6466
13 1 1.16788 17.9049 12.0954
32 1 2.7279 17.2168 11.9584
1 1 0.450256 15.7927 11.5705
141 3 5.1787 1.0234 0.919469
165 3 5.26939 2.45818 3.12233
186 3 6.64436 0.157848 3.15044
189 3 8.01143 2.57394 2.96156
114 3 7.90844 0.956224 0.884186
237 3 5.34592 0.987767 5.26395
210 3 8.03153 0.957754 5.20291
261 3 5.3682 2.53513 7.35098
306 3 7.99141 0.90353 9.4286
333 3 5.35243 0.919049 9.4582
282 3 6.63418 0.114233 7.408
286 3 8.07138 2.58001 7.40118
71 2 5.55126 0.903136 11.7054
47 1 5.12763 1.50416 12.3568
57 1 6.43272 0.927136 11.9149
86 2 8.02366 0.870192 11.9518
149 3 6.61055 4.87593 3.03982
105 3 5.31635 5.59644 0.891208
121 3 6.53089 3.238 0.992944
125 3 7.90502 5.60648 0.840062
201 3 5.36138 5.59225 5.07396
217 3 6.6659 3.25272 5.17962
245 3 6.66844 4.77736 7.33784
221 3 7.98271 5.62778 5.18187
297 3 5.31354 5.68987 9.30999
313 3 6.69828 3.31828 9.43605
317 3 7.94156 5.57166 9.47312
14 1 5.27379 5.74026 13.5482
72 2 4.31783 4.72317 12.5465
20 1 4.88884 4.40933 11.9802
25 1 7.78895 5.39417 11.8188
109 3 6.65539 7.8906 0.878655
181 3 5.33619 7.10624 2.98998
153 3 8.02706 7.18836 2.95182
205 3 6.75626 7.89176 5.1521
277 3 5.37366 7.18208 7.25604
301 3 6.63074 7.8499 9.39085
35 1 8.0769 8.72991 10.6072
96 2 5.79029 6.39558 14.1292
64 1 4.85605 7.72109 13.3005
39 1 4.47727 8.21602 11.7887
67 2 4.21312 8.28849 12.7289
62 1 6.65417 6.22547 13.8562
142 3 5.31489 10.2032 0.927845
166 3 5.29188 11.8205 3.10649
185 3 6.67939 9.43731 3.06101
190 3 8.01461 11.7481 3.04041
113 3 7.91724 10.2236 1.00366
209 3 7.98394 10.3479 5.15515
238 3 5.30572 10.1488 5.21238
281 3 6.65303 9.44266 7.33788
285 3 8.02263 11.7726 7.33474
262 3 5.27725 11.7423 7.36314
334 3 5.41286 10.0712 9.52395
305 3 8.02746 10.3717 9.56048
28 1 4.40339 11.4919 12.14
16 1 6.08578 10.2784 11.9756
3 1 5.1746 9.84211 13.0861
77 2 5.78438 10.5936 12.7602
58 1 7.94265 11.4509 12.8085
150 3 6.75682 14.2026 3.09644
106 3 5.28421 14.954 0.897675
122 3 6.6575 12.7347 1.09122
102 3 4.10105 12.6197 0.945413
222 3 7.99414 14.904 5.23978
218 3 6.61607 12.5441 5.22839
202 3 5.32182 14.9393 5.23589
246 3 6.5981 14.0933 7.38408
298 3 5.30966 14.7563 9.46669
314 3 6.64658 12.4625 9.37719
76 2 5.38221 14.6493 11.8179
6 1 6.83675 14.7753 11.7727
33 1 4.93838 13.8586 11.6419
78 2 7.98598 14.8611 11.693
51 1 4.79585 15.4926 11.8539
110 3 6.67581 17.3238 1.01384
182 3 5.32455 16.5851 3.04703
206 3 6.7282 17.3327 5.24967
234 3 4.06556 17.2774 5.22816
278 3 5.34789 16.4232 7.37988
302 3 6.71793 17.2593 9.42539
68 2 4.12738 17.0334 11.6557
15 1 4.4879 17.8564 12.0328
135 3 10.8299 0.833644 0.882442
163 3 10.7233 2.4688 3.04676
159 3 9.31214 0.196211 3.04301
139 3 12.1175 3.10969 0.831025
179 3 12.0454 0.23005 3.05867
231 3 10.6632 1.02795 5.14676
254 3 9.38087 0.170759 7.34216
259 3 10.6498 2.50669 7.37692
327 3 10.6014 0.891341 9.40138
275 3 11.9721 0.176344 7.3668
5 1 8.70018 1.61912 12.1134
40 1 10.4593 2.90301 11.8667
172 3 9.3453 4.85166 3.00555
120 3 10.8033 5.63753 0.98456
148 3 12.0055 4.80352 3.06246
100 3 9.30694 3.34444 0.991809
235 3 12.0575 3.32629 5.26427
196 3 9.30499 3.2734 5.15049
216 3 10.6874 5.64034 5.18437
244 3 12.0316 4.85199 7.30113
265 3 9.34272 4.83854 7.37005
312 3 10.761 5.59419 9.36089
291 3 9.39702 3.21228 9.5252
331 3 12.0902 3.45753 9.35385
85 2 8.31297 5.44287 12.7992
44 1 8.96806 6.12448 12.8438
70 2 9.53602 3.17541 11.8037
10 1 9.19367 4.01123 12.0383
176 3 10.8196 7.13988 2.97465
132 3 9.40483 8.0923 1.00917
104 3 11.9836 8.01376 0.871975
200 3 12.0443 8.0406 5.0363
228 3 9.38203 7.93858 5.18566
272 3 10.7627 7.21778 7.21734
249 3 8.14861 7.12705 7.35408
324 3 9.30477 7.84088 9.43496
296 3 11.9744 7.90757 9.41451
11 1 10.8268 6.93713 11.5713
89 2 10.9076 6.65725 12.6095
8 1 11.7819 6.39516 12.7111
136 3 10.6919 10.3632 0.996715
164 3 10.7525 11.8282 3.05768
160 3 9.26637 9.53987 3.02812
232 3 10.6949 10.298 5.20893
276 3 12.0048 9.48315 7.32524
253 3 9.36822 9.4517 7.30988
260 3 10.7673 11.8027 7.38953
328 3 10.6388 10.211 9.40281
66 2 8.69928 12.1195 12.6592
38 1 8.77625 11.9135 11.6159
55 1 11.2289 10.5062 13.5737
26 1 10.2289 11.9198 13.4386
93 2 11.0682 11.3792 13.9268
171 3 9.33876 14.136 3.13703
119 3 10.7441 14.8845 1.00895
99 3 9.37101 12.6684 0.954188
126 3 8.13334 14.8761 1.1338
140 3 12.0412 12.6201 1.0094
147 3 12.0917 14.0323 3.10582
215 3 10.7013 14.9299 5.2337
195 3 9.43598 12.6153 5.23709
266 3 9.44631 14.0688 7.33787
243 3 12.0166 14.1802 7.3535
292 3 9.24362 12.5757 9.41661
332 3 11.9946 12.5357 9.50324
311 3 10.682 14.8589 9.50799
42 1 10.9754 13.6223 10.6689
318 3 8.12885 14.7903 9.40856
19 1 8.38028 14.1556 12.0911
175 3 10.8 16.5159 3.1185
131 3 9.301 17.2027 1.00591
103 3 11.9153 17.2401 0.947039
154 3 8.09186 16.5434 3.153
227 3 9.43505 17.3141 5.20546
271 3 10.7509 16.4711 7.28718
199 3 12.0771 17.2952 5.20909
323 3 9.44118 17.2301 9.53484
295 3 12.0834 17.1913 9.44251
250 3 8.11509 16.5373 7.38094
79 2 9.15524 17.295 11.5275
80 2 12.0184 17.2495 11.6281
41 1 11.0783 17.4151 11.9381
63 1 8.622 16.6218 11.9721
29 1 8.43073 18.6633 11.9257
107 3 13.304 0.976243 0.982714
183 3 13.381 2.61177 3.16434
151 3 14.7295 0.112821 3.06773
155 3 16.0884 2.51406 3.06031
127 3 16.0331 0.852948 0.98721
203 3 13.4159 0.919622 5.31764
223 3 16.0567 0.875914 5.26212
319 3 16.0759 0.965469 9.5505
279 3 13.353 2.49772 7.45787
247 3 14.794 0.141779 7.50773
299 3 13.3062 0.9593 9.55688
251 3 16.107 2.47753 7.42809
21 1 12.9392 1.55989 11.8614
17 1 15.128 0.629755 12.0168
91 2 13.3583 0.690436 11.6511
82 2 16.0467 0.719908 11.8002
187 3 14.6443 4.86393 3.03977
144 3 13.264 5.51102 1.05065
111 3 14.7914 3.22375 0.942693
115 3 16.0923 5.64167 0.926099
240 3 13.3513 5.59646 5.13259
283 3 14.6533 4.79502 7.33773
207 3 14.7892 3.31076 5.25282
211 3 16.0529 5.61226 5.16374
303 3 14.7003 3.21512 9.44809
336 3 13.3218 5.58787 9.42106
307 3 16.0148 5.66619 9.4538
22 1 16.143 4.13091 10.4517
52 1 13.0398 3.99822 13.0318
87 2 12.4815 3.42591 12.6388
54 1 12.5931 3.79629 11.6705
124 3 14.8045 7.93317 0.896404
168 3 13.3423 7.21115 2.88528
192 3 16.065 7.09915 3.07656
220 3 14.6354 7.90151 5.17048
264 3 13.3102 7.15935 7.25452
287 3 15.9768 7.06487 7.28523
316 3 14.7487 7.97386 9.48189
45 1 13.7733 8.40224 12.9286
23 1 13.9913 6.71634 11.729
46 1 15.2529 6.73503 12.8279
84 2 14.1481 6.74697 12.7389
108 3 13.5119 10.2413 0.856311
184 3 13.5181 11.9352 2.95383
152 3 14.7648 9.51725 3.02404
156 3 16.1376 11.8397 3.08196
180 3 12.2099 9.52676 2.90592
128 3 16.1568 10.1817 0.992639
204 3 13.3871 10.2439 5.17453
248 3 14.7136 9.38508 7.30252
224 3 16.1232 10.2943 5.1417
252 3 16.1506 11.7486 7.32855
280 3 13.4289 11.8046 7.44965
300 3 13.3336 10.2466 9.4766
27 1 13.1276 9.56509 12.0446
65 2 13.525 9.48606 12.9116
75 2 15.9033 10.9491 13.43
59 1 14.9997 10.2761 13.3331
18 1 12.9182 12.3891 13.166
30 1 13.0565 11.9919 11.4403
188 3 14.8237 14.1785 2.98607
143 3 13.4463 15.0222 0.966767
112 3 14.8927 12.4555 0.847691
239 3 13.4558 14.8948 5.24333
208 3 14.857 12.5788 5.21725
212 3 16.1543 14.9538 5.21974
236 3 12.1649 12.5735 5.25189
284 3 14.7607 14.0855 7.37259
308 3 16.1002 14.7264 9.46121
335 3 13.4653 14.9116 9.44912
304 3 14.7536 12.5106 9.43042
90 2 13.5128 15.0567 11.8544
12 1 15.2395 15.1327 11.6821
31 1 13.1805 14.1276 12.1085
94 2 13.3892 12.6593 12.3666
123 3 14.6361 17.3323 1.03243
167 3 13.3739 16.4982 3.00083
191 3 16.1546 16.5943 3.03057
219 3 14.746 17.2976 5.21752
263 3 13.4022 16.6251 7.28803
288 3 16.0964 16.4884 7.29964
315 3 14.6939 17.189 9.4776
36 1 12.5149 18.2083 11.8505
24 1 13.1245 15.9056 11.6142
