ITEM: TIMESTEP
400000000
ITEM: NUMBER OF ATOMS
336
ITEM: BOX BOUNDS pp pp pp
0.0000000000000000e+00 1.6167135238600000e+01
0.0000000000000000e+00 1.8668199539200000e+01
0.0000000000000000e+00 2.5747400283800001e+01
ITEM: ATOMS id type x y z
117 3 2.6113 1.03119 0.922955
173 3 2.63748 2.48127 3.08226
169 3 1.26413 0.183695 3.07559
145 3 3.9926 0.195682 3.08218
213 3 2.56384 0.910682 5.29352
269 3 2.58037 2.45897 7.34981
241 3 3.97942 0.146668 7.37623
267 3 1.28971 0.130731 7.367
309 3 2.67021 1.0131 9.44096
37 1 2.9995 1.85959 11.6257
83 2 3.24587 2.07457 12.747
9 1 3.19479 3.02337 12.6028
7 1 0.154341 1.66914 12.3397
43 1 1.02137 2.71852 13.6673
69 2 0.175813 3.05528 13.2401
157 3 1.15698 4.8241 3.0465
133 3 2.49008 5.59376 0.89882
177 3 4.0038 4.79482 3.04594
129 3 1.25113 3.16893 0.957758
101 3 3.87878 3.27748 0.991937
197 3 3.9165 3.21743 5.26264
229 3 2.64694 5.63142 5.15632
225 3 1.21799 3.31105 5.3068
255 3 1.24089 4.87132 7.37604
321 3 1.24876 3.2459 9.54807
325 3 2.45272 5.54173 9.45819
273 3 3.88131 4.85952 7.38859
293 3 3.963 3.22332 9.42551
53 1 0.31331 3.42983 12.3985
49 1 3.85957 5.35908 11.6581
161 3 2.61224 7.14013 3.04432
98 3 1.34953 7.95242 0.961466
137 3 3.84171 7.87615 0.990262
194 3 1.24033 7.92681 5.23152
257 3 2.57739 7.09208 7.32876
233 3 3.91129 7.93081 5.13216
289 3 1.33176 7.84688 9.518
329 3 3.94806 7.91284 9.44503
73 2 1.0398 6.57382 12.7574
4 1 1.23429 7.56725 13.0264
61 1 2.8323 9.21246 13.1517
50 1 1.45632 6.6033 11.7886
118 3 2.69423 10.2512 0.879934
174 3 2.65992 11.7428 3.046
170 3 1.35907 9.44814 3.10617
146 3 3.98233 9.57355 3.04678
128 3 0.00995502 10.2075 1.00622
214 3 2.63428 10.2611 5.24462
270 3 2.70051 11.7249 7.32404
268 3 1.23493 9.4879 7.35685
310 3 2.63691 10.163 9.47597
242 3 4.03614 9.49212 7.35643
322 3 1.33044 12.4143 9.61709
56 1 0.59112 10.3906 13.2864
60 1 1.02615 11.7859 12.4414
88 2 1.88303 9.47024 12.8079
48 1 1.92906 9.52268 11.8117
158 3 1.36389 14.2227 3.0413
134 3 2.76208 14.9143 0.903744
130 3 1.37982 12.6844 1.05853
116 3 0.0770973 14.9971 1.05324
178 3 4.02718 14.1605 2.98368
226 3 1.32434 12.5754 5.26093
230 3 2.63828 14.9243 5.23574
198 3 3.95636 12.5428 5.16488
274 3 3.95052 14.0468 7.36178
256 3 1.29699 14.008 7.35992
326 3 2.57456 14.8163 9.40731
294 3 3.97993 12.5305 9.37328
81 2 0.103161 14.9204 11.6439
2 1 1.15294 13.3342 12.2853
92 2 1.41133 12.5008 11.9288
34 1 3.14884 12.5129 11.8073
162 3 2.67721 16.5012 3.00485
97 3 1.29959 17.2445 0.958673
138 3 3.99278 17.3695 0.945757
193 3 1.29525 17.2579 5.20487
258 3 2.5943 16.3826 7.33216
290 3 1.26921 17.1339 9.39267
330 3 3.97252 17.1941 9.42919
32 1 2.93799 17.3413 11.5638
13 1 1.01196 18.1157 11.7334
95 2 1.62381 17.1329 11.5923
1 1 0.643671 15.7859 11.6618
141 3 5.20397 1.02205 0.920314
165 3 5.27192 2.43134 3.09652
186 3 6.67324 0.127322 3.13514
189 3 7.99295 2.59116 2.96946
114 3 7.89367 0.94465 0.874453
237 3 5.33779 0.991681 5.29471
261 3 5.35534 2.55088 7.34562
210 3 8.0413 0.95285 5.19783
306 3 7.95736 0.912319 9.42651
282 3 6.62704 0.085775 7.4137
333 3 5.34467 0.900921 9.46546
286 3 8.07306 2.5617 7.39846
47 1 4.96843 1.48299 12.2153
71 2 5.57231 0.900476 11.6995
57 1 6.59698 0.882734 11.9371
86 2 8.04836 0.873232 11.9317
149 3 6.61683 4.86404 3.03393
105 3 5.31687 5.60177 0.882499
121 3 6.55908 3.26483 1.00413
125 3 7.92867 5.58665 0.870487
201 3 5.36535 5.59421 5.09041
217 3 6.63157 3.2517 5.16722
245 3 6.64709 4.78127 7.34624
221 3 7.96483 5.63172 5.18764
317 3 7.9672 5.56494 9.46368
297 3 5.31168 5.68016 9.30859
313 3 6.68962 3.30963 9.43558
72 2 4.32711 4.7643 12.5798
14 1 5.28122 5.71887 13.9521
20 1 4.95048 4.27229 12.0098
109 3 6.65738 7.87728 0.876872
181 3 5.34543 7.11521 2.97896
153 3 8.02846 7.17265 2.97331
205 3 6.761 7.88589 5.15767
277 3 5.37462 7.1885 7.23538
301 3 6.62842 7.85237 9.40173
62 1 6.54291 6.61077 13.7526
96 2 5.76373 6.41898 14.1471
64 1 4.74562 7.61779 13.2826
67 2 4.21963 8.3291 12.6263
39 1 4.29512 7.99262 11.7477
142 3 5.3008 10.2209 0.930309
166 3 5.29888 11.7996 3.08351
185 3 6.69191 9.43032 3.07349
190 3 8.04226 11.7615 3.07017
113 3 7.91687 10.2318 1.03354
209 3 7.99062 10.3508 5.15619
238 3 5.30594 10.1346 5.21517
285 3 8.03015 11.7647 7.32649
305 3 8.02647 10.3692 9.55032
281 3 6.66119 9.44082 7.35744
262 3 5.2618 11.7208 7.36354
334 3 5.40128 10.0438 9.51262
28 1 4.5205 11.4469 12.26
77 2 5.81648 10.5986 12.838
3 1 5.3034 9.81471 12.967
16 1 6.13968 10.2853 11.9315
58 1 7.99588 11.6236 12.8582
74 2 4.07145 12.3257 11.8945
150 3 6.72446 14.2075 3.0988
106 3 5.29086 14.9655 0.888956
122 3 6.65627 12.7147 1.0902
102 3 4.07821 12.6073 0.919918
222 3 8.00378 14.8718 5.24537
202 3 5.3025 14.9389 5.24866
218 3 6.60619 12.5558 5.21908
314 3 6.63297 12.511 9.37751
246 3 6.61627 14.1017 7.38825
298 3 5.3036 14.7421 9.49824
6 1 6.95699 14.7496 12.0084
33 1 4.8767 13.7889 12.2565
76 2 5.40675 14.6166 11.8347
78 2 7.95064 14.7631 11.732
51 1 4.72762 15.4558 11.8842
110 3 6.69029 17.335 1.00157
182 3 5.32082 16.5808 3.03975
206 3 6.7358 17.3303 5.23147
234 3 4.06038 17.2908 5.2148
278 3 5.3612 16.4098 7.38492
302 3 6.69111 17.2658 9.43452
68 2 4.12782 17.0111 11.6453
15 1 4.68342 17.7716 12.1757
135 3 10.8357 0.812904 0.89124
163 3 10.7127 2.50275 3.04725
159 3 9.32979 0.177788 3.07497
139 3 12.1115 3.09226 0.848309
179 3 12.0421 0.214631 3.06894
231 3 10.6758 0.987347 5.17151
254 3 9.36763 0.151257 7.34634
259 3 10.6444 2.52206 7.37433
327 3 10.5931 0.892861 9.4025
275 3 11.9851 0.165399 7.39628
5 1 8.69035 1.60906 11.9034
40 1 10.4545 3.0985 12.181
29 1 8.4924 0.0278224 12.0861
172 3 9.35467 4.8733 2.95374
120 3 10.8151 5.62471 0.983784
100 3 9.31611 3.35474 0.979514
148 3 11.9866 4.79436 3.05004
196 3 9.30417 3.27844 5.16204
216 3 10.6771 5.64631 5.16804
244 3 12.0191 4.86913 7.29371
235 3 12.0692 3.31381 5.26698
265 3 9.35031 4.86819 7.36342
312 3 10.7279 5.59085 9.34984
291 3 9.41326 3.19756 9.49653
331 3 12.0825 3.4763 9.34431
85 2 8.25806 5.47615 12.7854
44 1 8.86759 6.19461 12.7477
10 1 9.09486 4.09227 12.0118
70 2 9.54745 3.18835 11.8533
25 1 8.10381 5.41506 11.7296
176 3 10.8086 7.16465 2.9772
132 3 9.39218 8.09641 1.01694
104 3 11.9785 7.99976 0.839867
200 3 12.0566 8.03806 5.04149
228 3 9.40012 7.90407 5.18052
272 3 10.7275 7.19899 7.21558
249 3 8.11545 7.13316 7.33337
324 3 9.2986 7.82789 9.4337
296 3 11.9723 7.91608 9.39814
35 1 8.14574 8.67791 10.5219
11 1 10.9071 7.06505 11.5709
89 2 10.9159 6.6535 12.5904
8 1 12.0806 6.53396 12.7829
136 3 10.6708 10.3732 1.01536
164 3 10.7517 11.8191 3.08914
160 3 9.29785 9.55609 3.07281
232 3 10.7121 10.297 5.18199
253 3 9.37691 9.44866 7.294
260 3 10.751 11.7935 7.40767
276 3 11.9716 9.49083 7.36666
328 3 10.6314 10.2172 9.43844
38 1 8.77462 11.8954 11.6959
26 1 10.2342 12.036 13.8027
93 2 11.1113 11.4084 13.9164
55 1 10.8609 10.4511 13.5347
66 2 8.67195 12.154 12.5809
171 3 9.3492 14.1158 3.14509
119 3 10.7444 14.896 0.988081
99 3 9.3651 12.6559 0.977139
126 3 8.09244 14.9028 1.13562
140 3 12.0259 12.625 0.983273
147 3 12.0835 14.0382 3.10373
195 3 9.45074 12.6015 5.25383
215 3 10.7176 14.9095 5.2174
266 3 9.46847 14.1013 7.30919
243 3 11.9957 14.2059 7.33699
332 3 11.9964 12.5415 9.50855
42 1 11.048 13.4319 10.6915
292 3 9.23616 12.58 9.44781
311 3 10.6793 14.8728 9.51187
318 3 8.12997 14.8272 9.3994
19 1 8.48049 13.8675 12.0354
175 3 10.7821 16.5248 3.10542
131 3 9.29776 17.1841 0.973788
103 3 11.9097 17.2222 0.91627
154 3 8.09784 16.5367 3.13703
227 3 9.42118 17.2983 5.17764
271 3 10.7438 16.4896 7.30612
199 3 12.0781 17.2543 5.21074
250 3 8.13031 16.518 7.38447
323 3 9.42604 17.2511 9.51406
295 3 12.1165 17.1891 9.45013
41 1 11.1493 17.3955 11.9904
63 1 8.84176 16.4031 12.1246
79 2 9.21743 17.2801 11.5768
80 2 12.1005 17.3299 11.6606
107 3 13.334 0.952944 0.971796
183 3 13.4052 2.61771 3.16416
151 3 14.7208 0.135207 3.06041
127 3 16.0448 0.867037 0.981965
155 3 16.0722 2.52121 3.08592
203 3 13.4039 0.902875 5.32239
223 3 16.088 0.843137 5.26976
247 3 14.7644 0.174282 7.50491
279 3 13.3491 2.48155 7.40658
319 3 16.0736 0.973962 9.53083
299 3 13.3236 0.979787 9.54837
251 3 16.0935 2.50739 7.42785
21 1 12.8915 1.45139 11.9062
17 1 15.2229 0.441486 11.8899
91 2 13.3856 0.733717 11.609
82 2 16.1139 0.791827 11.7768
187 3 14.656 4.86919 3.0252
144 3 13.2546 5.52605 1.0244
111 3 14.8046 3.21981 0.965264
115 3 16.0945 5.65675 0.944774
207 3 14.7796 3.32977 5.24438
240 3 13.3471 5.59763 5.18172
283 3 14.6535 4.79557 7.34173
211 3 16.0839 5.56969 5.1418
307 3 16.0003 5.64844 9.4244
336 3 13.3083 5.59658 9.41943
303 3 14.7084 3.24051 9.44665
22 1 15.7944 4.0077 10.3795
87 2 12.4674 3.42186 12.6289
52 1 12.786 4.07739 13.0746
54 1 12.5846 3.77283 11.7388
124 3 14.7976 7.91236 0.88668
168 3 13.3338 7.20571 2.86994
192 3 16.0623 7.14379 3.07415
220 3 14.6207 7.90196 5.16575
264 3 13.3168 7.17825 7.26868
287 3 15.9478 7.07395 7.31053
316 3 14.7567 7.95904 9.46563
23 1 14.1273 6.68112 11.828
45 1 13.7615 8.38647 12.7479
84 2 14.1865 6.77286 12.7863
46 1 15.2229 6.82735 12.8177
108 3 13.4997 10.2491 0.836631
184 3 13.5323 11.9417 2.94598
152 3 14.7554 9.50838 3.04081
156 3 16.1395 11.8291 3.08194
180 3 12.1624 9.54964 2.91433
224 3 16.0968 10.2945 5.15288
204 3 13.3876 10.2336 5.16138
248 3 14.7072 9.40256 7.25121
252 3 16.1552 11.6891 7.29595
280 3 13.4187 11.8071 7.43236
300 3 13.3294 10.2425 9.48689
320 3 16.1281 10.1012 9.39866
65 2 13.5214 9.42387 12.8977
27 1 13.2158 9.50964 11.9439
30 1 13.0086 12.0954 11.3041
59 1 15.1202 10.4467 13.1158
75 2 15.9539 10.943 13.4257
18 1 12.7194 12.2722 13.0168
188 3 14.8235 14.203 2.99231
143 3 13.4303 15.0115 0.960699
112 3 14.8884 12.4546 0.834401
212 3 16.1545 14.9474 5.18919
239 3 13.4534 14.9095 5.22351
208 3 14.8583 12.5923 5.2126
236 3 12.1359 12.586 5.26717
308 3 16.1087 14.7342 9.4773
284 3 14.7535 14.0813 7.36497
335 3 13.4677 14.8984 9.44342
304 3 14.7686 12.5039 9.44209
90 2 13.5511 15.078 11.7721
94 2 13.3768 12.6716 12.3237
12 1 15.3717 15.2373 11.8352
31 1 13.1968 14.088 11.9403
123 3 14.6228 17.3332 1.02164
167 3 13.3854 16.4951 2.988
191 3 16.1664 16.5677 3.03144
219 3 14.7416 17.2948 5.20838
263 3 13.3979 16.6025 7.29563
288 3 16.1096 16.4831 7.3419
315 3 14.7195 17.1842 9.45168
36 1 12.5879 18.2979 11.7932
24 1 12.9487 15.9084 11.9823
