ITEM: TIMESTEP
400000000
ITEM: NUMBER OF ATOMS
336
ITEM: BOX BOUNDS pp pp pp
0.0000000000000000e+00 1.6167135238600000e+01
0.0000000000000000e+00 1.8668199539200000e+01
0.0000000000000000e+00 2.5747400283800001e+01
ITEM: ATOMS id type x y z
117 3 2.6273 1.01493 0.935671
173 3 2.6412 2.49125 3.07407
169 3 1.26657 0.198488 3.09111
145 3 3.984 0.189271 3.05659
213 3 2.5424 0.888652 5.28599
269 3 2.58485 2.44076 7.38646
267 3 1.28051 0.131506 7.37942
241 3 3.98219 0.128895 7.41652
309 3 2.65414 1.02799 9.44984
37 1 2.99937 1.92319 11.7436
83 2 3.20633 2.02121 12.7786
9 1 3.12796 2.93069 12.6806
43 1 0.885264 2.81994 13.7758
69 2 0.176728 2.96385 13.1717
157 3 1.15479 4.81643 3.04343
133 3 2.51684 5.58783 0.899339
129 3 1.23349 3.18666 0.955134
101 3 3.8678 3.27153 0.97399
177 3 4.00942 4.8195 3.04454
229 3 2.63875 5.61501 5.15872
225 3 1.20608 3.32576 5.3016
197 3 3.88757 3.21487 5.27203
293 3 3.9859 3.21482 9.42629
273 3 3.91964 4.86557 7.37711
255 3 1.22023 4.84859 7.40844
321 3 1.25602 3.27251 9.54899
325 3 2.47238 5.50714 9.46517
53 1 0.496111 3.43345 12.3138
49 1 3.91937 5.31904 11.8924
161 3 2.6291 7.14966 3.02841
98 3 1.34459 7.96059 0.970301
137 3 3.85241 7.88874 1.00671
194 3 1.24367 7.93666 5.20862
257 3 2.55576 7.08377 7.34994
233 3 3.93833 7.91071 5.13686
289 3 1.33956 7.83228 9.51846
329 3 3.94208 7.92584 9.46437
73 2 0.999972 6.6273 12.8256
61 1 3.07065 9.05157 12.941
4 1 1.25897 7.49246 12.87
50 1 1.28678 6.68679 11.7546
118 3 2.67131 10.2741 0.895855
174 3 2.65533 11.7361 3.03698
170 3 1.3644 9.4509 3.11167
146 3 3.98354 9.58539 3.0395
214 3 2.65445 10.2532 5.26323
270 3 2.69338 11.7278 7.31381
320 3 0.00142662 10.0942 9.39988
310 3 2.6354 10.1253 9.47197
268 3 1.23862 9.51041 7.36785
242 3 4.03599 9.45557 7.35882
322 3 1.32929 12.4219 9.62851
60 1 0.958479 11.8016 12.4345
74 2 4.00848 12.2729 11.8667
88 2 1.89179 9.48263 12.8658
56 1 0.585039 10.3063 13.4408
34 1 3.15741 12.2815 12.1534
48 1 1.9444 9.60811 12.0036
158 3 1.35845 14.2233 3.0225
134 3 2.7562 14.925 0.903227
130 3 1.38446 12.6833 1.07115
178 3 3.99611 14.1417 2.98448
116 3 0.0707105 14.9739 1.0252
230 3 2.64289 14.8979 5.24269
226 3 1.31833 12.5816 5.25213
198 3 3.95899 12.5606 5.16541
274 3 3.96759 14.0369 7.36969
256 3 1.30669 14.009 7.36692
326 3 2.56856 14.832 9.4093
294 3 3.97822 12.5231 9.35787
81 2 0.149277 14.9182 11.6749
92 2 1.36332 12.5191 11.8113
2 1 1.01055 13.3821 12.2098
162 3 2.67835 16.4942 3.01774
97 3 1.27783 17.2672 0.976139
138 3 3.99779 17.3645 0.912009
191 3 0.00449896 16.5972 3.0304
193 3 1.32508 17.2593 5.23458
258 3 2.60224 16.3943 7.33142
330 3 3.95885 17.1895 9.44576
290 3 1.24522 17.1193 9.40091
13 1 1.24668 17.9871 12.0284
32 1 2.72818 17.1812 11.9278
95 2 1.58202 17.1599 11.6271
1 1 0.447298 15.8048 11.6415
141 3 5.19398 1.02783 0.922812
165 3 5.26939 2.43752 3.11289
186 3 6.65513 0.170735 3.14669
189 3 8.00928 2.58948 2.96568
114 3 7.91529 0.962632 0.885056
210 3 8.03805 0.971641 5.2005
237 3 5.34863 0.990947 5.26893
306 3 7.98092 0.903046 9.42824
261 3 5.35549 2.55213 7.36086
282 3 6.63037 0.119673 7.4129
333 3 5.35941 0.909756 9.4549
286 3 8.0805 2.58205 7.393
71 2 5.53882 0.877516 11.7016
57 1 6.56773 0.912823 11.8999
47 1 5.15646 1.58029 12.2797
86 2 8.01682 0.909955 11.9744
149 3 6.60067 4.88555 3.03942
105 3 5.32574 5.60541 0.887801
121 3 6.52609 3.24247 0.988923
125 3 7.91452 5.59925 0.850996
221 3 7.99074 5.62401 5.17116
201 3 5.36847 5.59557 5.06895
217 3 6.65744 3.24142 5.17063
245 3 6.67013 4.77257 7.33682
313 3 6.69977 3.32024 9.43831
297 3 5.31195 5.69609 9.32154
317 3 7.94438 5.56054 9.47847
72 2 4.30488 4.73546 12.5364
14 1 5.27973 5.68653 13.5814
20 1 4.84579 4.45518 11.8622
25 1 7.85617 5.4804 11.7419
62 1 6.67611 6.20234 13.8653
109 3 6.64376 7.88678 0.885245
181 3 5.32535 7.10383 2.98791
153 3 8.01513 7.1926 2.97324
205 3 6.75095 7.89464 5.1415
277 3 5.39091 7.19612 7.25942
301 3 6.62525 7.84657 9.38152
67 2 4.23465 8.28357 12.7091
64 1 4.80494 7.67406 13.255
96 2 5.80012 6.38701 14.1522
39 1 4.69338 8.06097 11.756
142 3 5.31108 10.2019 0.924512
166 3 5.29097 11.8181 3.11319
185 3 6.6838 9.44185 3.04773
190 3 8.01085 11.7459 3.04347
113 3 7.92572 10.2299 1.0111
238 3 5.3041 10.15 5.21123
281 3 6.66574 9.45076 7.34091
285 3 8.03013 11.7694 7.34363
209 3 7.99611 10.3356 5.15611
305 3 8.01571 10.3841 9.56224
262 3 5.27441 11.7399 7.36136
334 3 5.41409 10.0396 9.52025
58 1 7.88595 11.4525 12.8157
77 2 5.77781 10.5831 12.7687
16 1 6.0704 10.3713 11.8966
3 1 5.16859 9.80502 12.9845
28 1 4.37223 11.532 12.1103
150 3 6.74707 14.1972 3.09429
106 3 5.28055 14.954 0.890898
122 3 6.66205 12.7403 1.0911
102 3 4.09933 12.6138 0.943577
202 3 5.31297 14.9399 5.23848
218 3 6.62808 12.5378 5.20656
222 3 7.99575 14.8974 5.2568
314 3 6.63054 12.4622 9.36531
246 3 6.59989 14.0838 7.40354
298 3 5.31657 14.7485 9.4771
6 1 6.95723 14.7127 11.8851
76 2 5.39611 14.6394 11.8143
33 1 4.9698 13.846 11.672
78 2 7.98121 14.8428 11.709
110 3 6.68962 17.3172 1.02982
182 3 5.31114 16.5784 3.04561
234 3 4.08151 17.2865 5.2431
206 3 6.71171 17.3372 5.25213
278 3 5.34012 16.4231 7.39455
302 3 6.70871 17.2658 9.41274
15 1 4.61271 17.7902 12.1878
68 2 4.12672 17.0536 11.6635
51 1 4.72889 15.5886 11.8729
135 3 10.8245 0.844157 0.889751
163 3 10.7235 2.47665 3.03411
159 3 9.31645 0.195086 3.03865
179 3 12.0259 0.231114 3.06632
231 3 10.6727 1.02601 5.14746
254 3 9.38027 0.168916 7.33267
259 3 10.6506 2.51744 7.37929
275 3 11.9762 0.168046 7.35948
327 3 10.6 0.900257 9.41101
5 1 8.61343 1.64079 12.1902
40 1 10.4633 2.91067 11.9948
29 1 8.56892 0.0436997 12.0601
172 3 9.3466 4.87099 2.99939
120 3 10.8052 5.64427 0.986415
100 3 9.30135 3.35052 0.988611
148 3 12.0032 4.79084 3.07931
139 3 12.1138 3.12762 0.850965
244 3 12.0261 4.85691 7.2908
196 3 9.31069 3.27686 5.16183
216 3 10.6786 5.63743 5.18049
235 3 12.0571 3.32495 5.26605
331 3 12.0976 3.47627 9.3585
265 3 9.34302 4.85481 7.36617
291 3 9.40044 3.22377 9.52396
312 3 10.7556 5.59325 9.36218
70 2 9.53008 3.16579 11.7762
44 1 9.01052 6.11082 12.7847
85 2 8.29306 5.43476 12.776
10 1 9.18592 4.12453 11.9757
176 3 10.8123 7.15264 2.97118
132 3 9.39818 8.08053 1.01055
104 3 11.9839 8.03473 0.868048
228 3 9.39327 7.94405 5.17358
272 3 10.7538 7.20864 7.22473
200 3 12.0457 8.02315 5.0365
249 3 8.12859 7.11625 7.35413
296 3 11.9778 7.90203 9.4149
324 3 9.31137 7.83033 9.43324
35 1 8.09383 8.61855 10.5706
89 2 10.8941 6.68746 12.6063
11 1 10.8239 6.78937 11.6873
8 1 11.7373 6.47595 12.6747
136 3 10.682 10.3654 0.989146
164 3 10.743 11.8372 3.06788
160 3 9.27349 9.55289 3.02238
276 3 11.9991 9.48293 7.32887
232 3 10.682 10.3048 5.20282
253 3 9.37524 9.44577 7.30111
260 3 10.7799 11.8053 7.37665
328 3 10.637 10.2115 9.40734
38 1 8.71637 12.0458 11.7293
55 1 11.0956 10.536 13.6456
93 2 11.1057 11.4016 13.9337
26 1 10.2748 11.8172 13.5576
66 2 8.66449 12.125 12.6487
171 3 9.33488 14.134 3.12763
119 3 10.7411 14.8794 1.00048
99 3 9.37634 12.6585 0.960684
140 3 12.0425 12.6238 1.00669
126 3 8.12644 14.8852 1.15791
147 3 12.0906 14.0464 3.11016
266 3 9.44664 14.0674 7.33381
215 3 10.7083 14.9315 5.23418
195 3 9.43943 12.6108 5.24239
243 3 12.0106 14.1742 7.34122
332 3 11.9835 12.5452 9.50069
292 3 9.22654 12.5954 9.42881
42 1 10.9079 13.6003 10.5843
311 3 10.6749 14.8564 9.52434
318 3 8.13377 14.7992 9.41547
19 1 8.40448 14.0297 12.0968
175 3 10.7951 16.528 3.10206
131 3 9.30319 17.2139 0.972601
103 3 11.9181 17.2312 0.949352
154 3 8.11661 16.5562 3.15364
227 3 9.43159 17.3088 5.19368
271 3 10.7572 16.4665 7.30073
199 3 12.0756 17.2828 5.2117
323 3 9.43745 17.2531 9.5354
295 3 12.0967 17.1982 9.45228
250 3 8.12615 16.5361 7.37248
63 1 8.59856 16.5529 11.8442
80 2 12.0349 17.2494 11.646
79 2 9.21251 17.2883 11.5346
41 1 11.151 17.4413 12.0226
107 3 13.3018 0.964839 0.977664
183 3 13.3704 2.61352 3.16437
151 3 14.7314 0.112079 3.05996
155 3 16.0806 2.51788 3.07238
127 3 16.0305 0.856798 0.983384
203 3 13.4181 0.910929 5.30853
223 3 16.0622 0.860501 5.27454
247 3 14.8011 0.151889 7.5021
279 3 13.351 2.49219 7.44535
299 3 13.3033 0.954107 9.56003
319 3 16.0778 0.972152 9.54196
251 3 16.0934 2.47306 7.40744
17 1 15.1111 0.473535 12.0341
91 2 13.3621 0.718013 11.6491
21 1 12.9711 1.63053 11.9996
82 2 16.0614 0.717995 11.7847
7 1 16.1663 1.54798 12.3876
187 3 14.6503 4.86655 3.02694
144 3 13.2654 5.50738 1.03237
111 3 14.7972 3.21808 0.953288
115 3 16.0857 5.61494 0.926867
240 3 13.3647 5.61011 5.13005
211 3 16.0639 5.59731 5.16462
283 3 14.6455 4.79067 7.33762
207 3 14.7852 3.31162 5.24544
336 3 13.3076 5.5968 9.41884
303 3 14.7064 3.22107 9.44372
307 3 16.0066 5.65848 9.44159
22 1 15.9952 4.04535 10.5004
52 1 13.0034 4.00347 13.1076
87 2 12.4722 3.39992 12.6002
54 1 12.5974 3.69306 11.7164
124 3 14.8124 7.9409 0.897337
168 3 13.3516 7.21649 2.89643
192 3 16.0723 7.12167 3.07655
220 3 14.6269 7.90585 5.1593
264 3 13.3074 7.15214 7.26731
287 3 15.9683 7.05823 7.29158
316 3 14.7455 7.96203 9.47297
46 1 15.1941 6.61935 12.7039
84 2 14.1754 6.7515 12.7502
45 1 13.6909 8.37317 12.9218
23 1 13.908 6.72032 11.8039
108 3 13.5197 10.2456 0.858063
184 3 13.5275 11.9335 2.95948
152 3 14.7567 9.52159 3.0229
156 3 16.1414 11.8333 3.06865
128 3 16.1633 10.194 0.989549
180 3 12.2022 9.53424 2.90875
204 3 13.395 10.2399 5.17422
248 3 14.7067 9.39353 7.29512
224 3 16.1109 10.2949 5.13337
252 3 16.16 11.7379 7.33325
280 3 13.4221 11.8091 7.43502
300 3 13.3397 10.2268 9.48214
75 2 15.898 10.9699 13.4209
65 2 13.5295 9.45335 12.9019
18 1 12.843 12.2498 13.2578
59 1 15.072 10.3749 13.2384
30 1 13.1093 11.8708 11.4954
27 1 13.1688 9.65554 11.9327
188 3 14.8275 14.1885 2.98549
143 3 13.4453 15.0036 0.963825
112 3 14.8952 12.454 0.843465
239 3 13.454 14.8984 5.24105
208 3 14.853 12.5827 5.22066
284 3 14.7744 14.0965 7.35483
212 3 16.1669 14.9551 5.21436
236 3 12.1631 12.584 5.25453
308 3 16.1113 14.7213 9.47245
335 3 13.4733 14.9144 9.4388
304 3 14.7526 12.5017 9.43318
90 2 13.5088 15.0262 11.8266
31 1 13.3459 14.0961 12.0532
94 2 13.382 12.6585 12.3481
12 1 15.2472 15.1086 11.7207
123 3 14.6324 17.3278 1.03717
167 3 13.3789 16.4825 3.0084
288 3 16.0918 16.4726 7.307
219 3 14.7352 17.3084 5.19871
263 3 13.4049 16.6303 7.27896
315 3 14.693 17.1815 9.4638
36 1 12.5538 18.1937 11.7846
24 1 13.1261 15.9749 11.5989
