ITEM: TIMESTEP
400000000
ITEM: NUMBER OF ATOMS
336
ITEM: BOX BOUNDS pp pp pp
0.0000000000000000e+00 1.6167135238600000e+01
0.0000000000000000e+00 1.8668199539200000e+01
0.0000000000000000e+00 2.5747400283800001e+01
ITEM: ATOMS id type x y z
117 3 2.61875 1.03745 0.917554
173 3 2.64629 2.47705 3.08356
169 3 1.28148 0.187776 3.07408
145 3 3.97504 0.191864 3.07194
213 3 2.55397 0.905819 5.29315
269 3 2.56963 2.44206 7.35971
267 3 1.29126 0.1258 7.37028
309 3 2.66901 1.02228 9.45513
241 3 3.9882 0.142263 7.40193
37 1 2.92135 1.84144 11.7565
7 1 0.100536 1.6323 12.4003
83 2 3.25164 2.04034 12.7477
9 1 3.09191 3.10772 12.6461
69 2 0.177645 3.0306 13.2026
43 1 0.936389 2.76811 13.6293
157 3 1.16039 4.82808 3.0467
133 3 2.50423 5.58118 0.887829
177 3 4.01263 4.80458 3.04933
129 3 1.23737 3.16015 0.949946
101 3 3.87428 3.26647 0.982306
225 3 1.20632 3.31916 5.29577
229 3 2.63643 5.64382 5.14959
197 3 3.91796 3.20119 5.26397
293 3 3.96242 3.21497 9.42785
255 3 1.239 4.85192 7.37298
321 3 1.25709 3.25485 9.56394
325 3 2.46308 5.54255 9.45111
273 3 3.90117 4.8678 7.37996
53 1 0.469073 3.3425 12.3247
49 1 3.96302 5.35943 11.7471
161 3 2.61756 7.16479 3.03691
98 3 1.35701 7.93744 0.963715
137 3 3.84721 7.88472 0.99082
194 3 1.23989 7.92919 5.23074
257 3 2.56675 7.09964 7.34125
233 3 3.91372 7.91543 5.14202
289 3 1.34183 7.84343 9.5325
329 3 3.94655 7.9161 9.45065
73 2 1.022 6.59797 12.7222
4 1 1.20216 7.64999 13.1256
50 1 1.44877 6.54008 11.7858
61 1 2.89387 9.19073 13.0662
118 3 2.68309 10.2648 0.864948
174 3 2.6522 11.7468 3.05335
170 3 1.36752 9.45848 3.09285
146 3 3.9804 9.5643 3.04953
128 3 0.0113103 10.2079 1.00752
214 3 2.63763 10.2593 5.24994
270 3 2.7066 11.7181 7.31375
322 3 1.33361 12.4216 9.62586
268 3 1.23829 9.48767 7.36
310 3 2.63519 10.1561 9.48223
242 3 4.02516 9.48243 7.3679
60 1 0.965347 11.7119 12.4454
56 1 0.510575 10.41 13.4405
88 2 1.87979 9.45222 12.8372
34 1 3.17571 12.3073 11.8939
48 1 1.94655 9.52492 11.808
158 3 1.372 14.2316 3.04354
134 3 2.75578 14.9129 0.904866
130 3 1.38374 12.6861 1.05931
116 3 0.0746237 15 1.04853
178 3 4.01318 14.1637 2.9779
274 3 3.96333 14.057 7.35489
226 3 1.322 12.5831 5.27604
230 3 2.65031 14.9087 5.23034
198 3 3.95285 12.5493 5.15103
256 3 1.30465 14.0131 7.37361
326 3 2.57536 14.8072 9.40161
294 3 3.97913 12.5319 9.36889
81 2 0.1101 14.9003 11.6271
2 1 1.12151 13.3518 12.2794
92 2 1.36749 12.4837 11.8777
162 3 2.6784 16.4842 3.00219
97 3 1.28605 17.2434 0.968828
138 3 3.97699 17.3597 0.941815
193 3 1.31291 17.2705 5.20767
258 3 2.59623 16.3874 7.33942
330 3 3.96585 17.1898 9.43045
290 3 1.23276 17.1385 9.39832
32 1 2.91899 17.3018 11.5054
95 2 1.62935 17.158 11.6279
1 1 0.570414 15.826 11.68
13 1 1.08299 18.0436 11.7971
141 3 5.1989 1.00849 0.918676
165 3 5.2737 2.43936 3.11514
186 3 6.68788 0.137668 3.1291
189 3 8.00922 2.6008 2.97011
114 3 7.8996 0.929199 0.867604
237 3 5.34466 1.00038 5.29833
210 3 8.04238 0.962722 5.19519
306 3 7.95913 0.909109 9.43451
286 3 8.07219 2.56699 7.39996
261 3 5.34731 2.55131 7.3591
282 3 6.63243 0.0834569 7.41095
333 3 5.35887 0.908809 9.47056
57 1 6.59126 0.776975 11.9586
71 2 5.53463 0.877496 11.6963
47 1 5.03466 1.49804 12.1523
86 2 8.01353 0.880439 11.9364
149 3 6.60561 4.87271 3.03718
105 3 5.31537 5.59741 0.890227
121 3 6.55026 3.25347 0.984789
125 3 7.92649 5.59011 0.873396
217 3 6.63551 3.24682 5.16968
201 3 5.38179 5.58895 5.09344
245 3 6.654 4.76829 7.34972
221 3 7.97055 5.63802 5.18398
317 3 7.96522 5.56424 9.47852
313 3 6.68496 3.30661 9.45201
297 3 5.3122 5.67086 9.30897
20 1 4.94871 4.19086 12.0199
14 1 5.23736 5.68663 13.72
72 2 4.30957 4.76894 12.5596
25 1 8.055 5.37851 11.7675
109 3 6.64663 7.87344 0.881426
181 3 5.33691 7.11394 2.97558
153 3 8.03569 7.17238 2.97055
205 3 6.76429 7.87073 5.15224
277 3 5.35854 7.19662 7.24512
301 3 6.6362 7.84956 9.38844
62 1 6.62053 6.33681 13.8947
39 1 4.36761 7.98516 11.7538
67 2 4.22633 8.3133 12.6255
64 1 4.82964 7.64544 13.132
96 2 5.7781 6.4028 14.1511
142 3 5.29951 10.2027 0.931908
166 3 5.29553 11.8 3.08876
185 3 6.69102 9.43507 3.0698
190 3 8.03288 11.7586 3.06901
113 3 7.90639 10.2239 1.01413
238 3 5.30904 10.1362 5.21082
209 3 7.99393 10.3453 5.14681
281 3 6.68219 9.42715 7.34886
262 3 5.27694 11.7317 7.35371
285 3 8.01928 11.7692 7.32264
334 3 5.40306 10.0365 9.50293
305 3 8.01374 10.3832 9.56249
16 1 6.21219 10.4921 11.9273
77 2 5.81495 10.5926 12.8323
28 1 4.48173 11.4919 12.3007
3 1 5.21543 9.91217 12.9799
58 1 7.93127 11.5752 12.8341
74 2 4.04683 12.3061 11.9044
150 3 6.73364 14.2021 3.09987
106 3 5.27939 14.9641 0.90259
122 3 6.65121 12.719 1.08551
102 3 4.0904 12.6044 0.93679
222 3 8.01123 14.8831 5.23893
202 3 5.31341 14.9382 5.24998
218 3 6.60362 12.5494 5.22046
246 3 6.62016 14.1026 7.38835
298 3 5.30724 14.7497 9.48673
314 3 6.64029 12.5014 9.38425
6 1 6.99004 14.9159 11.9157
76 2 5.37523 14.638 11.8001
33 1 4.89642 13.8049 12.0394
78 2 7.95712 14.7583 11.7305
51 1 4.70458 15.3819 11.8508
110 3 6.69708 17.3419 1.00495
182 3 5.31612 16.5704 3.04136
234 3 4.06027 17.2903 5.21996
206 3 6.74004 17.3385 5.23713
278 3 5.34815 16.4108 7.39834
302 3 6.69522 17.2873 9.44302
15 1 4.58958 17.8204 12.0754
68 2 4.11342 17.0214 11.6672
135 3 10.839 0.824153 0.894785
163 3 10.7159 2.49065 3.04573
159 3 9.32889 0.182623 3.07351
179 3 12.0337 0.21532 3.06892
139 3 12.1065 3.10527 0.855386
231 3 10.7054 0.98652 5.16338
254 3 9.37579 0.162521 7.33629
259 3 10.639 2.52117 7.39204
327 3 10.5862 0.885988 9.40246
275 3 11.9804 0.16894 7.3943
5 1 8.60441 1.69005 11.9743
29 1 8.63359 0.0339503 12.0582
40 1 10.4072 3.02948 12.2258
172 3 9.34898 4.86945 2.9788
120 3 10.8251 5.62389 0.978705
100 3 9.29936 3.35683 0.989917
148 3 11.9753 4.79519 3.05759
196 3 9.30096 3.27333 5.15968
216 3 10.662 5.65508 5.16826
244 3 12.0163 4.87945 7.30012
235 3 12.0648 3.30318 5.27104
265 3 9.35405 4.86467 7.374
291 3 9.4043 3.20867 9.49967
312 3 10.719 5.57598 9.34161
331 3 12.0853 3.47409 9.35339
70 2 9.52856 3.17828 11.8264
85 2 8.26591 5.4779 12.7877
10 1 9.05412 4.06618 12.03
176 3 10.8011 7.15956 2.98112
132 3 9.39726 8.09444 1.00413
104 3 11.9842 8.00589 0.837356
228 3 9.40625 7.90801 5.16445
272 3 10.7337 7.21271 7.23409
200 3 12.0587 8.03659 5.04651
249 3 8.12226 7.12228 7.33405
296 3 11.9848 7.9129 9.37945
324 3 9.2962 7.83426 9.43897
35 1 8.21234 8.58701 10.582
11 1 10.9142 7.0663 11.687
89 2 10.9115 6.68376 12.6029
8 1 12.0099 6.56523 12.7475
44 1 8.86707 6.2286 12.7758
136 3 10.6654 10.374 1.00239
164 3 10.7512 11.8232 3.08462
160 3 9.2887 9.55992 3.05534
232 3 10.6934 10.3012 5.18778
276 3 11.9683 9.48694 7.35086
253 3 9.38005 9.4433 7.31506
260 3 10.757 11.8105 7.39399
328 3 10.6232 10.2136 9.4179
38 1 8.85525 11.9513 11.6977
26 1 10.2061 11.9425 13.8256
55 1 10.9082 10.4472 13.5489
93 2 11.1265 11.3878 13.9151
66 2 8.65082 12.1572 12.5769
171 3 9.35155 14.1103 3.14308
119 3 10.7514 14.8845 0.977629
99 3 9.35994 12.64 0.972788
126 3 8.09591 14.892 1.14714
140 3 12.048 12.6153 0.991786
147 3 12.0801 14.0413 3.10946
195 3 9.44672 12.5979 5.26349
215 3 10.7069 14.9129 5.23026
266 3 9.46223 14.0902 7.29746
243 3 12.0104 14.2 7.33782
332 3 12.0011 12.5401 9.49707
292 3 9.22506 12.6034 9.44926
42 1 10.9619 13.5525 10.6
311 3 10.6669 14.8603 9.52029
318 3 8.12951 14.8261 9.41123
19 1 8.44608 13.9958 12.1273
175 3 10.7886 16.5209 3.11356
131 3 9.29311 17.1855 0.967864
103 3 11.8977 17.2235 0.918937
154 3 8.0992 16.5464 3.13044
227 3 9.42103 17.3062 5.19066
271 3 10.7462 16.4719 7.28935
199 3 12.0756 17.2624 5.23243
323 3 9.41666 17.2451 9.52346
295 3 12.1055 17.1905 9.45955
250 3 8.13198 16.5297 7.39021
80 2 12.0794 17.3045 11.6917
41 1 11.0735 17.4771 11.9096
79 2 9.24723 17.2878 11.5844
63 1 8.67027 16.5481 12.1229
107 3 13.3271 0.960994 0.96512
183 3 13.3905 2.60848 3.16029
151 3 14.7336 0.123584 3.06578
127 3 16.0327 0.881845 0.986117
155 3 16.0835 2.52322 3.08702
223 3 16.0893 0.846891 5.27664
203 3 13.4048 0.893601 5.33464
247 3 14.7739 0.171038 7.49566
279 3 13.3484 2.47606 7.41072
319 3 16.0742 0.95781 9.52609
299 3 13.3143 0.975201 9.55999
251 3 16.0979 2.50052 7.41884
21 1 12.8569 1.46363 11.9579
91 2 13.3233 0.747199 11.6354
17 1 15.0834 0.622354 11.9876
82 2 16.1032 0.782801 11.7831
187 3 14.6579 4.86587 3.02844
144 3 13.2598 5.52018 1.01457
111 3 14.7918 3.21769 0.955677
115 3 16.0818 5.65547 0.950575
240 3 13.3525 5.58522 5.16927
207 3 14.7822 3.33125 5.2575
283 3 14.6444 4.79859 7.33319
211 3 16.0843 5.57954 5.14395
307 3 15.994 5.6474 9.43022
336 3 13.3018 5.60435 9.40205
303 3 14.7069 3.24735 9.46187
22 1 15.9683 3.97519 10.3119
54 1 12.6055 3.80801 11.7176
87 2 12.4498 3.42602 12.6074
52 1 12.884 4.10585 13.3086
124 3 14.8007 7.92504 0.895255
168 3 13.3355 7.20318 2.87256
192 3 16.0638 7.14058 3.06807
220 3 14.627 7.90137 5.17245
264 3 13.3221 7.15575 7.26033
287 3 15.9507 7.08775 7.30022
316 3 14.7484 7.96558 9.47205
45 1 13.9576 8.51041 12.742
84 2 14.1877 6.75139 12.7869
23 1 14.0757 6.67541 11.652
46 1 15.1875 6.86617 12.6911
108 3 13.5056 10.2552 0.820666
184 3 13.5433 11.9383 2.93806
152 3 14.7509 9.4966 3.03633
180 3 12.1656 9.5622 2.907
156 3 16.1405 11.8181 3.07258
204 3 13.3778 10.2268 5.16074
248 3 14.6983 9.39849 7.25766
252 3 16.1533 11.7004 7.30318
224 3 16.1065 10.2898 5.15739
280 3 13.4201 11.8039 7.42499
300 3 13.3322 10.2337 9.47276
320 3 16.1543 10.1005 9.39719
59 1 14.8897 10.4945 13.1703
27 1 13.2356 9.499 12.0029
30 1 12.9767 12.1641 11.4311
65 2 13.5389 9.40874 12.9281
75 2 15.9474 10.989 13.4202
18 1 12.8514 12.2523 13.1079
188 3 14.8237 14.1843 2.99295
143 3 13.4302 15.0106 0.975387
112 3 14.8857 12.4642 0.834145
208 3 14.8551 12.5929 5.2069
239 3 13.4498 14.9029 5.21977
284 3 14.7673 14.0834 7.35186
212 3 16.149 14.9434 5.18157
236 3 12.1498 12.5832 5.26515
308 3 16.1254 14.7303 9.48907
335 3 13.4812 14.9103 9.45794
304 3 14.7672 12.5069 9.43751
31 1 13.304 14.0533 12.0179
12 1 15.2149 15.2345 11.8846
90 2 13.5502 15.0639 11.8032
94 2 13.3564 12.6291 12.3217
123 3 14.6295 17.3341 1.02277
167 3 13.3961 16.4946 3.00266
191 3 16.1608 16.5692 3.03213
219 3 14.7418 17.3048 5.20411
263 3 13.401 16.6053 7.29841
288 3 16.1003 16.4796 7.32896
315 3 14.7145 17.186 9.45432
24 1 12.9132 15.8012 11.8149
36 1 12.7147 18.3624 11.7966
