ITEM: TIMESTEP
400000000
ITEM: NUMBER OF ATOMS
336
ITEM: BOX BOUNDS pp pp pp
0.0000000000000000e+00 1.6167135238600000e+01
0.0000000000000000e+00 1.8668199539200000e+01
0.0000000000000000e+00 2.5747400283800001e+01
ITEM: ATOMS id type x y z
117 3 2.61385 1.00903 0.93331
173 3 2.64583 2.47464 3.05811
169 3 1.26553 0.158768 3.08367
145 3 3.99297 0.175952 3.09465
213 3 2.53702 0.901292 5.27693
269 3 2.5684 2.45704 7.3563
267 3 1.30121 0.106426 7.38699
309 3 2.66223 1.02069 9.42625
241 3 3.97834 0.142496 7.37942
37 1 2.8004 1.81282 11.5261
83 2 3.30349 2.07772 12.7261
7 1 0.122868 1.71797 12.3257
9 1 3.24469 3.04205 12.7342
69 2 0.188112 2.97724 13.2166
43 1 1.1592 2.88425 13.6467
157 3 1.15447 4.82676 3.04198
133 3 2.51246 5.58124 0.89663
129 3 1.24028 3.15555 0.984754
101 3 3.89041 3.26654 0.974607
177 3 3.95823 4.827 3.05123
229 3 2.63928 5.63316 5.16281
225 3 1.20922 3.31501 5.31801
197 3 3.92102 3.24096 5.25306
293 3 3.96406 3.21949 9.42084
255 3 1.23521 4.84725 7.39121
325 3 2.47587 5.53398 9.4697
321 3 1.28358 3.26612 9.51988
273 3 3.86808 4.85278 7.37464
53 1 0.34781 3.52813 12.2847
49 1 3.85252 5.40722 12.0277
161 3 2.6038 7.10975 3.0263
98 3 1.34609 7.95016 0.941976
137 3 3.87591 7.89091 1.00013
194 3 1.24702 7.93229 5.23516
257 3 2.58636 7.06415 7.30543
233 3 3.91169 7.91186 5.12023
289 3 1.32425 7.84145 9.51798
329 3 3.93878 7.9265 9.44389
73 2 0.996965 6.59722 12.7921
61 1 2.67846 9.11308 13.0202
4 1 1.01187 7.67928 12.9821
50 1 1.34927 6.67679 11.764
118 3 2.68687 10.2333 0.881827
174 3 2.69178 11.747 3.04582
170 3 1.35191 9.46549 3.10489
146 3 3.98937 9.61313 3.03918
128 3 0.0342801 10.1907 1.00171
214 3 2.63323 10.2549 5.24921
270 3 2.69338 11.7237 7.30152
310 3 2.63709 10.1395 9.46821
268 3 1.24069 9.51567 7.37938
242 3 4.02339 9.47191 7.36575
322 3 1.33241 12.405 9.62038
48 1 1.97889 9.57918 11.7714
60 1 0.881814 11.7796 12.392
88 2 1.88719 9.50119 12.8269
56 1 0.707963 10.4461 13.3206
74 2 4.02955 12.3507 11.8954
34 1 3.08614 12.3933 11.7279
158 3 1.3744 14.2443 3.04262
134 3 2.7496 14.9051 0.902859
130 3 1.3577 12.6754 1.04807
178 3 4.02375 14.1768 2.9818
116 3 0.0689011 14.9821 1.02148
230 3 2.64143 14.927 5.22753
226 3 1.33451 12.5727 5.27987
198 3 3.98593 12.551 5.15692
274 3 3.95852 14.0508 7.36421
256 3 1.28766 14.0084 7.35723
326 3 2.60098 14.8326 9.40004
294 3 3.98478 12.4969 9.38994
92 2 1.39843 12.4596 11.9345
81 2 0.0859852 14.9183 11.635
2 1 1.03522 13.2789 12.2861
162 3 2.67157 16.4663 3.01784
97 3 1.30692 17.2509 0.946895
138 3 3.99779 17.3758 0.93359
193 3 1.30251 17.2759 5.21382
258 3 2.60176 16.3809 7.31266
290 3 1.26228 17.1167 9.40996
330 3 3.98154 17.1954 9.44149
1 1 0.789815 15.9683 11.7282
32 1 2.75855 17.2741 11.746
13 1 1.12918 17.9009 11.7881
95 2 1.65704 17.1448 11.6235
141 3 5.21584 1.02561 0.932391
165 3 5.26539 2.44704 3.08778
186 3 6.65725 0.149977 3.13414
189 3 7.98383 2.59057 2.95328
114 3 7.90243 0.952122 0.865292
237 3 5.35528 0.993727 5.2783
210 3 8.01596 0.926664 5.17996
306 3 7.96849 0.931338 9.45057
261 3 5.38008 2.55443 7.36758
282 3 6.62551 0.108143 7.42445
333 3 5.33911 0.906774 9.45465
286 3 8.06944 2.54324 7.41833
47 1 4.78197 1.55768 12.0681
57 1 6.56387 1.02129 11.971
71 2 5.58647 0.867705 11.7237
86 2 7.94025 0.909883 11.9489
149 3 6.60329 4.85064 3.05101
105 3 5.315 5.60346 0.891129
121 3 6.54135 3.23739 1.00427
125 3 7.91567 5.5992 0.866757
201 3 5.35294 5.5901 5.09352
217 3 6.65609 3.2563 5.17731
245 3 6.66535 4.78495 7.34602
221 3 7.96617 5.63651 5.18453
313 3 6.70228 3.306 9.44915
297 3 5.30973 5.6779 9.31264
317 3 7.94245 5.57919 9.44785
72 2 4.22289 4.75038 12.5941
25 1 8.07383 5.43832 11.6631
14 1 5.33744 5.73288 13.73
20 1 4.94216 4.15168 12.2599
109 3 6.65316 7.88503 0.870878
181 3 5.34411 7.10352 2.97477
153 3 8.02748 7.18837 2.96266
205 3 6.75206 7.90207 5.1708
277 3 5.35801 7.17554 7.216
301 3 6.6322 7.83091 9.38208
64 1 4.90667 7.6223 13.2345
96 2 5.76137 6.43375 14.1546
39 1 4.33817 7.93691 11.6899
67 2 4.2521 8.29327 12.7144
62 1 6.67458 6.75481 13.544
142 3 5.29911 10.2228 0.920716
166 3 5.29391 11.8147 3.08331
185 3 6.66825 9.42814 3.0479
190 3 8.01881 11.7594 3.1
113 3 7.9266 10.2228 1.02442
238 3 5.32891 10.1544 5.20021
281 3 6.65167 9.44934 7.34843
285 3 7.99565 11.7724 7.32973
209 3 7.98053 10.3606 5.15863
262 3 5.25668 11.7312 7.36057
334 3 5.40367 10.0256 9.50879
305 3 8.02216 10.3607 9.55499
58 1 8.02293 11.4901 12.7591
3 1 5.18929 9.80057 13.0618
16 1 6.09577 10.275 11.8764
77 2 5.81721 10.6274 12.7794
28 1 4.5147 11.5328 12.2888
150 3 6.75475 14.2098 3.11226
106 3 5.27132 14.9654 0.910535
122 3 6.66507 12.7044 1.08657
102 3 4.06725 12.6139 0.936559
222 3 7.9859 14.8807 5.26411
202 3 5.33561 14.9326 5.23347
218 3 6.61796 12.5519 5.24297
314 3 6.64559 12.4808 9.35993
246 3 6.6021 14.0772 7.3957
298 3 5.28854 14.7504 9.46591
33 1 4.88506 13.7095 12.2551
6 1 6.93822 14.8253 12.1336
76 2 5.39467 14.6733 11.8578
78 2 7.92814 14.7367 11.6875
110 3 6.68474 17.3057 0.991409
182 3 5.33218 16.5772 3.05115
234 3 4.05152 17.2907 5.2101
206 3 6.75506 17.3421 5.23403
278 3 5.35333 16.4191 7.38191
302 3 6.69914 17.2924 9.4357
68 2 4.08349 16.9877 11.6535
15 1 4.59671 17.7598 11.8846
51 1 4.90462 15.5676 11.7421
135 3 10.8424 0.797979 0.890514
163 3 10.7017 2.51976 3.06168
159 3 9.30544 0.181246 3.06234
179 3 12.0377 0.207602 3.07856
231 3 10.6891 0.984142 5.17037
254 3 9.36787 0.161367 7.33645
275 3 11.9765 0.154376 7.3988
259 3 10.617 2.51551 7.39638
327 3 10.5772 0.925441 9.40563
5 1 8.58981 1.63222 11.7617
29 1 8.61943 0.0593208 12.0514
40 1 10.5289 3.09692 12.1382
172 3 9.37167 4.85602 2.93815
120 3 10.8077 5.63517 0.958715
100 3 9.32468 3.35024 0.998211
148 3 11.9793 4.79067 3.05179
139 3 12.1168 3.11517 0.853062
196 3 9.30455 3.2701 5.13119
216 3 10.6735 5.64993 5.17757
244 3 12.0329 4.87711 7.29666
235 3 12.0628 3.30806 5.25718
331 3 12.052 3.45697 9.32823
265 3 9.35853 4.84592 7.37058
291 3 9.41699 3.21686 9.47931
312 3 10.735 5.60346 9.33132
70 2 9.53875 3.1198 11.8566
85 2 8.29986 5.48649 12.82
10 1 9.13297 3.92692 12.1829
176 3 10.8118 7.18377 2.97349
132 3 9.39279 8.09249 1.01012
104 3 11.9849 8.01187 0.866009
200 3 12.0567 8.02456 5.03742
228 3 9.3702 7.92943 5.20189
272 3 10.7223 7.20395 7.22593
249 3 8.1033 7.12216 7.31644
296 3 11.9529 7.91561 9.39733
324 3 9.29769 7.81959 9.40527
35 1 8.13529 8.92661 10.336
89 2 10.932 6.63066 12.5964
11 1 10.8791 6.99065 11.5356
8 1 12.0477 6.35751 12.7436
44 1 8.97106 6.24649 12.8495
136 3 10.6803 10.3687 1.01343
164 3 10.7374 11.8234 3.10415
160 3 9.29341 9.56212 3.08098
232 3 10.717 10.297 5.18988
253 3 9.35265 9.45364 7.2842
260 3 10.7841 11.8 7.42249
276 3 11.9888 9.48768 7.36579
328 3 10.6389 10.2336 9.43786
38 1 8.49975 11.8546 11.6929
26 1 10.0774 11.7835 13.7925
93 2 11.0594 11.3695 13.8832
55 1 11.0748 10.4333 13.5728
66 2 8.65915 12.1193 12.586
171 3 9.37236 14.1175 3.13496
119 3 10.7579 14.8893 0.985107
99 3 9.37669 12.6566 0.962862
140 3 12.0365 12.6072 0.99884
147 3 12.0491 14.0473 3.11142
126 3 8.12702 14.9097 1.15739
195 3 9.45846 12.6022 5.24839
215 3 10.7093 14.9331 5.24402
243 3 12.0048 14.1895 7.3468
266 3 9.43556 14.1213 7.32423
332 3 11.9934 12.5496 9.53434
311 3 10.6837 14.8468 9.50324
42 1 10.8596 13.6405 10.6785
292 3 9.24743 12.5879 9.42596
318 3 8.13424 14.8249 9.39461
19 1 8.52017 13.9763 11.8358
175 3 10.7677 16.5465 3.08898
131 3 9.29757 17.201 0.990049
103 3 11.9126 17.1971 0.944028
154 3 8.1065 16.5343 3.13686
227 3 9.44299 17.3165 5.1763
271 3 10.722 16.4683 7.29626
199 3 12.081 17.2839 5.2087
323 3 9.40951 17.2319 9.51787
295 3 12.0798 17.1811 9.43937
250 3 8.13577 16.5247 7.37893
41 1 11.0724 17.3785 12.0031
80 2 12.0725 17.2957 11.7328
63 1 8.83586 16.3711 12.0743
79 2 9.20908 17.3131 11.6023
107 3 13.3324 0.966182 0.982664
183 3 13.3998 2.60229 3.14374
151 3 14.7212 0.11788 3.05046
127 3 16.0265 0.836444 0.960313
155 3 16.0825 2.52655 3.08413
203 3 13.4258 0.898015 5.32516
223 3 16.0614 0.847504 5.23542
247 3 14.7786 0.175122 7.5134
279 3 13.3367 2.50566 7.44118
299 3 13.3256 0.98104 9.55099
319 3 16.0878 0.974028 9.54
251 3 16.0922 2.48196 7.41901
21 1 13.2902 1.51939 12.15
91 2 13.3315 0.743503 11.6908
17 1 15.3034 0.518051 11.8581
82 2 16.1267 0.790082 11.7481
187 3 14.682 4.85511 3.03093
144 3 13.2595 5.50333 1.04924
111 3 14.7929 3.22531 0.958447
115 3 16.1012 5.66003 0.948458
240 3 13.3638 5.55516 5.18298
207 3 14.7921 3.34129 5.24818
211 3 16.06 5.59386 5.15492
283 3 14.6484 4.79634 7.36254
336 3 13.2867 5.57918 9.42808
303 3 14.6926 3.26107 9.44923
307 3 16.0185 5.6369 9.45511
22 1 15.9586 4.12016 10.4009
87 2 12.4984 3.39703 12.5828
52 1 12.9662 4.1101 13.2571
54 1 12.6244 3.63537 11.6569
124 3 14.8051 7.92329 0.880816
168 3 13.3076 7.21702 2.89137
192 3 16.0614 7.13775 3.06982
220 3 14.633 7.91396 5.1707
264 3 13.3229 7.17576 7.29158
287 3 15.9443 7.07815 7.30608
316 3 14.7486 7.97028 9.46629
45 1 13.5767 8.48951 12.9382
84 2 14.1028 6.70886 12.753
23 1 13.824 6.70188 11.8236
46 1 15.0106 6.51026 12.868
108 3 13.4976 10.2437 0.837692
184 3 13.5254 11.9138 2.94878
152 3 14.7751 9.49577 3.02198
156 3 16.1399 11.8421 3.08462
180 3 12.1746 9.54756 2.92837
204 3 13.3934 10.231 5.15388
248 3 14.6986 9.41781 7.27342
224 3 16.1155 10.293 5.163
252 3 16.1554 11.7255 7.29665
280 3 13.4121 11.7894 7.43061
300 3 13.3335 10.2525 9.50679
320 3 16.1446 10.087 9.39027
30 1 13.1866 12.1493 11.4765
65 2 13.5081 9.47091 12.8718
59 1 15.2873 10.1923 13.1667
27 1 13.422 9.61489 11.9021
75 2 15.9724 10.9055 13.3918
188 3 14.8055 14.1678 3.00984
143 3 13.4421 14.9854 0.957211
112 3 14.8746 12.4471 0.815789
212 3 16.1592 14.9446 5.1923
239 3 13.4575 14.91 5.22205
208 3 14.8808 12.5996 5.19661
236 3 12.1382 12.5906 5.28465
308 3 16.0964 14.7462 9.48201
284 3 14.7693 14.0731 7.36065
335 3 13.4627 14.9101 9.457
304 3 14.7617 12.5071 9.43109
12 1 15.2577 15.0353 11.7245
90 2 13.5342 15.0362 11.8108
31 1 13.2848 14.009 12.0335
94 2 13.454 12.7188 12.3456
18 1 12.6954 12.4512 13.2312
123 3 14.6498 17.3228 1.01193
167 3 13.3594 16.4986 2.98847
191 3 16.1615 16.568 3.05878
219 3 14.7691 17.3016 5.21183
263 3 13.4231 16.5947 7.30573
288 3 16.1052 16.4645 7.31547
315 3 14.6957 17.1996 9.45812
24 1 13.139 15.8413 11.8897
36 1 12.4688 18.4238 11.6782
