ITEM: TIMESTEP
400000000
ITEM: NUMBER OF ATOMS
336
ITEM: BOX BOUNDS pp pp pp
0.0000000000000000e+00 1.6167135238600000e+01
0.0000000000000000e+00 1.8668199539200000e+01
0.0000000000000000e+00 2.5747400283800001e+01
ITEM: ATOMS id type x y z
117 3 2.62965 1.01159 0.925325
173 3 2.64227 2.48497 3.07508
169 3 1.26539 0.193585 3.07726
145 3 3.97077 0.189741 3.06711
213 3 2.53177 0.886132 5.29246
269 3 2.5804 2.44167 7.38531
267 3 1.28891 0.134378 7.3743
309 3 2.66087 1.01584 9.46339
241 3 3.98655 0.1297 7.40175
37 1 3.07531 1.84501 11.7362
7 1 0.032428 1.58961 12.2901
83 2 3.22666 1.98619 12.7735
69 2 0.174138 2.96109 13.1748
9 1 3.11733 2.99538 12.6061
43 1 0.866889 2.76354 13.7779
157 3 1.15196 4.82984 3.04368
133 3 2.50523 5.59099 0.897759
129 3 1.22938 3.17125 0.96083
101 3 3.86531 3.27198 0.975384
177 3 4.01402 4.81601 3.05359
229 3 2.63833 5.62398 5.15376
225 3 1.20422 3.3134 5.30268
197 3 3.89374 3.20911 5.27416
293 3 3.97573 3.22321 9.43447
255 3 1.23276 4.84626 7.40268
321 3 1.25439 3.26514 9.56311
325 3 2.47275 5.52479 9.47176
273 3 3.90399 4.86943 7.36305
53 1 0.428185 3.44218 12.2979
49 1 3.84194 5.43127 11.7615
161 3 2.6203 7.15411 3.02495
98 3 1.35411 7.95588 0.959445
137 3 3.84984 7.89298 0.995005
194 3 1.23888 7.94403 5.21777
257 3 2.55306 7.09481 7.32611
233 3 3.92608 7.90968 5.13681
289 3 1.33814 7.83223 9.52872
329 3 3.95606 7.92106 9.45999
4 1 1.24564 7.62124 12.9564
73 2 0.989856 6.63419 12.7855
61 1 3.14397 9.03979 12.9613
50 1 1.3014 6.66358 11.6226
118 3 2.67359 10.2709 0.884715
174 3 2.6559 11.7326 3.03177
170 3 1.35778 9.45986 3.1075
146 3 3.98705 9.57839 3.04966
128 3 0.0105491 10.2014 1.00451
214 3 2.64938 10.2532 5.26095
270 3 2.69293 11.7287 7.31341
242 3 4.03063 9.48185 7.36361
268 3 1.24046 9.49017 7.36473
310 3 2.62881 10.1379 9.48592
322 3 1.32487 12.4176 9.61964
60 1 1.00119 11.8958 12.5365
56 1 0.483014 10.2867 13.4604
88 2 1.89044 9.47191 12.8272
34 1 3.11252 12.3745 12.0943
74 2 4.03294 12.2815 11.839
48 1 2.05895 9.58283 11.8277
158 3 1.36104 14.2377 3.02569
134 3 2.76051 14.9157 0.91052
130 3 1.40255 12.6966 1.07675
178 3 4.00028 14.1405 2.98271
116 3 0.0756424 14.9917 1.03534
274 3 3.9691 14.0339 7.35532
230 3 2.65226 14.9099 5.22348
226 3 1.31374 12.595 5.26607
198 3 3.95994 12.5601 5.16026
294 3 3.97633 12.5294 9.36017
256 3 1.31097 14.0083 7.36431
326 3 2.59614 14.8241 9.41071
81 2 0.151197 14.9339 11.661
2 1 0.977357 13.4599 12.3441
92 2 1.33281 12.5066 11.8429
162 3 2.6833 16.4956 3.01128
97 3 1.27702 17.2526 0.987343
138 3 3.99229 17.3629 0.918789
191 3 0.00189744 16.5919 3.02212
193 3 1.30981 17.2653 5.22401
258 3 2.59642 16.3891 7.3374
290 3 1.2524 17.1259 9.41194
330 3 3.96285 17.1909 9.43909
95 2 1.60025 17.1669 11.6026
32 1 2.74265 17.28 11.699
13 1 1.15009 17.9442 11.9559
1 1 0.489116 15.8357 11.5554
141 3 5.19217 1.0402 0.922064
165 3 5.28693 2.43384 3.12262
186 3 6.6644 0.164507 3.14763
189 3 7.99853 2.6061 2.97165
114 3 7.90978 0.95629 0.884196
237 3 5.34816 1.00955 5.27419
210 3 8.05555 0.964808 5.20652
261 3 5.34393 2.53868 7.35482
306 3 7.9766 0.904556 9.42005
286 3 8.07116 2.57944 7.39129
282 3 6.63073 0.106549 7.41788
333 3 5.35568 0.924433 9.45832
47 1 5.15585 1.57724 12.368
71 2 5.54243 0.868785 11.6684
57 1 6.50275 0.844343 11.8046
86 2 8.03313 0.897372 11.9467
149 3 6.60736 4.89015 3.04716
105 3 5.33445 5.60291 0.889625
121 3 6.54054 3.24234 0.985093
125 3 7.92497 5.60099 0.861378
217 3 6.65255 3.24503 5.1778
201 3 5.38355 5.59488 5.08401
245 3 6.66883 4.77253 7.35411
221 3 7.97774 5.63256 5.17791
317 3 7.95867 5.54917 9.47938
297 3 5.31088 5.67757 9.31371
313 3 6.69667 3.31897 9.43944
72 2 4.29884 4.74493 12.5218
25 1 7.99236 5.46898 11.8161
20 1 4.85842 4.3106 11.8737
14 1 5.26145 5.74772 13.7659
109 3 6.64683 7.88207 0.88482
181 3 5.32578 7.10527 2.98573
153 3 8.01352 7.18148 2.95749
205 3 6.76309 7.88745 5.15371
277 3 5.36683 7.20533 7.24149
301 3 6.63342 7.84991 9.37793
96 2 5.80494 6.40219 14.1753
39 1 4.47719 7.99805 11.6959
64 1 4.7724 7.57684 13.1133
67 2 4.20991 8.32975 12.6719
62 1 6.74139 6.34438 13.753
142 3 5.3083 10.1906 0.919107
166 3 5.29764 11.8109 3.10945
185 3 6.68184 9.43645 3.04805
190 3 8.017 11.7604 3.05049
113 3 7.91772 10.2204 1.01321
238 3 5.30245 10.1559 5.21528
209 3 7.98574 10.325 5.15301
281 3 6.67571 9.43768 7.34324
285 3 8.03011 11.7635 7.33365
262 3 5.26648 11.7324 7.35924
334 3 5.40956 10.0608 9.51226
305 3 8.01073 10.3765 9.56147
77 2 5.78055 10.6172 12.7821
28 1 4.31835 11.5541 12.2742
3 1 5.19325 9.85004 12.9775
16 1 6.13673 10.4557 11.8782
58 1 7.88891 11.3258 12.9979
150 3 6.74314 14.2057 3.09879
106 3 5.28496 14.9627 0.901946
122 3 6.65678 12.7227 1.08859
102 3 4.10551 12.6095 0.938945
222 3 8.00072 14.9038 5.24651
202 3 5.30906 14.9433 5.22748
218 3 6.60957 12.5514 5.21558
314 3 6.64396 12.4753 9.37452
246 3 6.60387 14.0954 7.39973
298 3 5.31714 14.7469 9.47994
33 1 4.92794 13.8574 11.9304
76 2 5.41266 14.674 11.8169
6 1 6.98628 14.7638 11.9863
78 2 7.98304 14.8188 11.7028
51 1 4.83526 15.5439 11.944
110 3 6.69858 17.3134 1.02031
182 3 5.30949 16.5839 3.03971
206 3 6.72107 17.3511 5.24595
234 3 4.07732 17.285 5.21785
278 3 5.33952 16.4235 7.38688
302 3 6.6913 17.2911 9.41255
68 2 4.13005 17.0385 11.6786
15 1 4.43853 17.7962 12.1343
135 3 10.8196 0.849418 0.89234
163 3 10.7238 2.48519 3.04182
159 3 9.32445 0.20041 3.04329
179 3 12.0428 0.226604 3.07095
231 3 10.6906 1.00438 5.1589
254 3 9.38105 0.169068 7.34768
327 3 10.6007 0.901617 9.39609
259 3 10.6561 2.52555 7.37813
275 3 11.9804 0.162888 7.36328
5 1 8.60923 1.75427 12.2057
40 1 10.4424 3.06199 12.0043
172 3 9.346 4.86139 2.99619
120 3 10.8107 5.62821 0.982086
100 3 9.29727 3.35541 0.995463
148 3 11.9952 4.79724 3.06651
139 3 12.1142 3.11423 0.843155
196 3 9.3091 3.27667 5.17125
216 3 10.658 5.65676 5.17197
235 3 12.0596 3.32186 5.27219
244 3 12.0236 4.87823 7.2843
265 3 9.35436 4.85724 7.37268
312 3 10.7374 5.58859 9.34721
291 3 9.39987 3.222 9.50343
331 3 12.1089 3.47285 9.3529
85 2 8.2954 5.4731 12.7738
10 1 9.25975 4.08837 11.999
70 2 9.50822 3.17335 11.7666
44 1 9.02784 6.14751 12.7408
176 3 10.8171 7.15252 2.9805
132 3 9.41347 8.09436 1.00303
104 3 11.9881 8.02446 0.850063
272 3 10.7594 7.21783 7.23764
228 3 9.40176 7.93244 5.16838
200 3 12.0583 8.02371 5.03738
249 3 8.13122 7.11642 7.35126
296 3 11.983 7.89471 9.40526
324 3 9.29583 7.83303 9.43795
35 1 8.12423 8.61518 10.5353
11 1 10.8927 6.88204 11.6847
89 2 10.8881 6.69822 12.6053
8 1 11.8154 6.33149 12.694
136 3 10.6599 10.3703 0.999753
164 3 10.7406 11.8267 3.06606
160 3 9.26685 9.5668 3.01656
232 3 10.6879 10.3219 5.18856
276 3 11.9889 9.47377 7.32581
253 3 9.36197 9.45409 7.30066
260 3 10.7605 11.7933 7.381
328 3 10.6446 10.2153 9.4015
38 1 8.86154 11.9867 11.6383
26 1 10.2295 11.8337 13.5456
55 1 11.0213 10.5004 13.6115
93 2 11.1002 11.361 13.9087
66 2 8.63727 12.1418 12.609
171 3 9.32773 14.1276 3.14944
119 3 10.7386 14.8852 0.969398
99 3 9.37753 12.6667 0.964468
140 3 12.0434 12.6298 0.997487
126 3 8.11814 14.8919 1.15697
147 3 12.0795 14.0405 3.11854
195 3 9.45316 12.5999 5.25052
215 3 10.7072 14.9268 5.23544
266 3 9.45815 14.0762 7.30832
243 3 12.0209 14.1958 7.3417
332 3 11.9776 12.5535 9.49854
292 3 9.22076 12.5858 9.41353
311 3 10.6756 14.8442 9.52921
42 1 10.9367 13.5418 10.6252
318 3 8.13545 14.816 9.4074
19 1 8.33664 13.9365 12.1264
175 3 10.8047 16.518 3.1003
131 3 9.30266 17.2012 0.971694
103 3 11.9033 17.2162 0.941354
154 3 8.11789 16.5443 3.14699
227 3 9.42712 17.2949 5.1951
271 3 10.7606 16.4612 7.29176
199 3 12.0729 17.2697 5.21787
323 3 9.42749 17.2601 9.51872
295 3 12.1147 17.2012 9.45556
250 3 8.13916 16.537 7.3753
63 1 8.68369 16.4736 11.9125
80 2 12.0804 17.2825 11.6374
79 2 9.26615 17.2858 11.5445
41 1 11.1051 17.3726 12.0429
29 1 8.52313 18.6677 12.0214
107 3 13.3038 0.956341 0.981499
183 3 13.3823 2.61488 3.14777
151 3 14.7258 0.124891 3.06584
155 3 16.079 2.51319 3.0571
127 3 16.0374 0.873941 0.989006
203 3 13.4057 0.899306 5.31057
223 3 16.076 0.85228 5.27136
247 3 14.7934 0.167223 7.48794
279 3 13.3582 2.47768 7.43545
299 3 13.3075 0.947498 9.55383
319 3 16.0868 0.971449 9.54349
251 3 16.0872 2.49001 7.39987
21 1 12.9108 1.56709 11.9435
17 1 15.1514 0.446514 12.1559
91 2 13.3367 0.717126 11.6343
82 2 16.0837 0.691482 11.7827
187 3 14.6542 4.86628 3.03462
144 3 13.2719 5.50993 1.02711
111 3 14.794 3.21238 0.953939
115 3 16.0768 5.6297 0.943682
240 3 13.365 5.58996 5.14973
207 3 14.7907 3.31526 5.23815
283 3 14.6558 4.79722 7.345
211 3 16.0837 5.591 5.1661
336 3 13.3007 5.60992 9.41386
303 3 14.7029 3.22692 9.45506
307 3 15.9962 5.64495 9.45184
22 1 16.0263 4.0234 10.4039
52 1 13.0942 4.025 13.1947
87 2 12.4645 3.41432 12.5875
54 1 12.6667 3.71416 11.6766
124 3 14.8025 7.93669 0.897158
168 3 13.3467 7.21765 2.88734
192 3 16.0627 7.13268 3.07976
220 3 14.639 7.90343 5.16186
264 3 13.321 7.16578 7.27349
287 3 15.9552 7.08891 7.28865
316 3 14.7474 7.9605 9.46952
84 2 14.1582 6.76069 12.7836
46 1 15.129 6.65718 12.6299
45 1 13.8861 8.40951 13.0335
23 1 13.7991 6.73922 11.8431
108 3 13.5114 10.2534 0.85293
184 3 13.5412 11.9347 2.95279
152 3 14.7521 9.5179 3.0242
156 3 16.1486 11.8198 3.05541
180 3 12.1795 9.53526 2.91101
204 3 13.3889 10.2373 5.16616
248 3 14.6972 9.3955 7.2946
224 3 16.1101 10.2815 5.14308
252 3 16.1619 11.727 7.32447
280 3 13.4086 11.8116 7.4328
300 3 13.3416 10.2322 9.47479
320 3 16.1636 10.105 9.40397
75 2 15.8926 10.9369 13.3935
30 1 12.93 11.99 11.5717
27 1 13.3057 9.62989 12.0569
59 1 15.0486 10.3465 13.2548
65 2 13.5372 9.44748 12.9245
18 1 12.8449 12.3483 13.1774
188 3 14.837 14.1848 2.98816
143 3 13.4241 15.006 0.970551
112 3 14.8924 12.4587 0.835335
239 3 13.4511 14.9031 5.22817
208 3 14.8531 12.5763 5.2088
284 3 14.7598 14.083 7.35487
212 3 16.1615 14.9441 5.22061
236 3 12.1563 12.5832 5.25165
308 3 16.1137 14.7178 9.46529
335 3 13.4733 14.9124 9.43893
304 3 14.7667 12.5029 9.44682
90 2 13.5241 15.0864 11.8276
94 2 13.3466 12.6548 12.355
12 1 15.2126 15.1614 11.7129
31 1 13.3945 14.066 12.1253
123 3 14.6345 17.3292 1.02829
167 3 13.3689 16.4859 3.01618
288 3 16.1006 16.4851 7.31684
219 3 14.7305 17.2979 5.21467
263 3 13.3993 16.6221 7.2951
315 3 14.6953 17.1904 9.45951
24 1 12.9993 15.9673 11.6279
36 1 12.6706 18.1673 11.7152
