ITEM: TIMESTEP
400000000
ITEM: NUMBER OF ATOMS
336
ITEM: BOX BOUNDS pp pp pp
0.0000000000000000e+00 1.6167135238600000e+01
0.0000000000000000e+00 1.8668199539200000e+01
0.0000000000000000e+00 2.5747400283800001e+01
ITEM: ATOMS id type x y z
117 3 2.61306 1.02727 0.950534
173 3 2.63081 2.49205 3.08477
169 3 1.22762 0.194399 3.08804
145 3 4.00736 0.163331 3.06826
213 3 2.52291 0.881394 5.27141
269 3 2.58369 2.44033 7.37978
267 3 1.27792 0.106015 7.3803
309 3 2.66913 1.017 9.46175
241 3 3.9945 0.133892 7.38958
83 2 3.22258 2.06306 12.6756
37 1 3.09334 1.92308 11.8094
7 1 0.0794375 1.77909 12.1829
9 1 3.13922 2.95825 12.8039
69 2 0.136626 2.94884 13.21
43 1 0.959498 2.9721 13.6969
157 3 1.16911 4.8325 3.03007
133 3 2.50336 5.58616 0.900175
129 3 1.23268 3.18734 0.977448
101 3 3.8803 3.27198 0.995419
177 3 3.98748 4.83221 3.04995
197 3 3.88453 3.23808 5.27058
225 3 1.23912 3.34122 5.31162
229 3 2.63778 5.6317 5.15029
325 3 2.49827 5.53201 9.47262
293 3 3.96162 3.21909 9.41392
255 3 1.21932 4.83351 7.39189
321 3 1.2623 3.27102 9.52419
273 3 3.90589 4.87298 7.39724
22 1 0.0447402 4.12528 10.5632
53 1 0.254149 3.53415 12.3276
161 3 2.61326 7.11691 3.03097
98 3 1.35684 7.9589 0.982651
137 3 3.87356 7.9165 0.999711
194 3 1.23033 7.94798 5.23487
257 3 2.56685 7.06258 7.33988
233 3 3.95175 7.90546 5.12174
289 3 1.34767 7.83702 9.52262
329 3 3.92811 7.91083 9.44771
73 2 1.00074 6.61064 12.7443
4 1 1.17634 7.51585 13.1057
61 1 2.84913 9.12841 13.0314
50 1 1.20459 6.90541 11.6027
118 3 2.65673 10.2747 0.862836
174 3 2.67923 11.7391 3.06099
146 3 4.00728 9.57373 3.03855
170 3 1.34424 9.45601 3.07621
214 3 2.64401 10.2536 5.24695
270 3 2.69326 11.7329 7.3388
242 3 4.03535 9.46875 7.351
268 3 1.24811 9.49915 7.37227
310 3 2.63827 10.142 9.47733
322 3 1.33177 12.4215 9.62613
60 1 0.604457 11.7857 12.359
74 2 3.94131 12.2906 11.8745
56 1 0.649617 10.4154 13.4094
88 2 1.90173 9.49117 12.87
48 1 1.77362 9.35342 11.8651
158 3 1.37876 14.2085 3.04069
134 3 2.75135 14.9357 0.902889
130 3 1.36434 12.6792 1.06464
116 3 0.0531876 14.9925 1.02618
178 3 4.01445 14.1742 2.99031
226 3 1.33 12.5745 5.26145
230 3 2.63792 14.9183 5.2233
198 3 3.97633 12.5199 5.17156
274 3 3.96588 14.0393 7.35917
256 3 1.31139 13.9912 7.38799
326 3 2.57853 14.8346 9.42452
294 3 4.00183 12.5098 9.39946
92 2 1.37855 12.5223 11.9121
2 1 1.19435 13.2775 12.4111
81 2 0.102481 14.9085 11.6905
34 1 2.90063 12.5017 11.9711
162 3 2.68481 16.4721 3.01977
97 3 1.27189 17.2683 0.934024
138 3 3.98483 17.3721 0.911803
193 3 1.3345 17.2512 5.22313
258 3 2.60918 16.3822 7.3353
330 3 3.95179 17.1866 9.43341
290 3 1.24581 17.1335 9.42535
13 1 1.11603 17.9048 12.1132
1 1 0.565428 15.7373 11.5389
95 2 1.61698 17.194 11.6223
32 1 2.67575 17.0537 11.9436
141 3 5.20508 1.03896 0.912902
165 3 5.24259 2.44611 3.10979
186 3 6.66986 0.140895 3.14201
189 3 7.98685 2.5844 2.96339
114 3 7.89452 0.95017 0.886773
237 3 5.37055 1.01507 5.28005
210 3 8.0299 0.931437 5.19946
286 3 8.06438 2.57567 7.41759
306 3 7.98667 0.910998 9.43954
261 3 5.35582 2.5417 7.372
282 3 6.62318 0.100601 7.42208
333 3 5.33812 0.906966 9.44735
47 1 5.07047 1.40048 12.4463
71 2 5.54854 0.902711 11.7706
57 1 6.55426 0.96118 11.9083
86 2 7.96242 0.902063 11.9664
149 3 6.61749 4.89277 3.05188
105 3 5.33057 5.58232 0.89917
121 3 6.54695 3.22993 0.984523
125 3 7.90475 5.60992 0.871133
201 3 5.35434 5.60156 5.10258
217 3 6.68049 3.2661 5.1796
245 3 6.66191 4.7966 7.33093
221 3 7.97464 5.63134 5.20046
313 3 6.70979 3.31972 9.44167
297 3 5.3012 5.6782 9.32641
317 3 7.93133 5.57297 9.47415
20 1 5.0421 4.16577 12.1255
72 2 4.29809 4.75138 12.555
14 1 5.21573 5.72134 13.6315
25 1 7.89315 5.44378 11.7095
49 1 4.07506 5.3715 11.8265
62 1 6.63451 6.17805 13.7151
109 3 6.6375 7.88617 0.867677
181 3 5.32969 7.10278 2.97464
153 3 8.03766 7.19261 2.94949
205 3 6.7517 7.9126 5.18354
277 3 5.36642 7.17318 7.24534
35 1 8.01695 8.9181 10.4678
301 3 6.62036 7.84957 9.39008
67 2 4.23257 8.26513 12.7319
64 1 4.85991 7.63991 13.0452
39 1 4.52052 8.23237 11.6652
96 2 5.78179 6.40617 14.0968
142 3 5.30675 10.2082 0.917941
166 3 5.29393 11.8385 3.10126
185 3 6.66576 9.43 3.04751
190 3 8.02231 11.7473 3.05904
113 3 7.93566 10.2273 1.01378
238 3 5.32533 10.1683 5.19969
209 3 7.96818 10.3599 5.17851
281 3 6.6318 9.44646 7.35386
262 3 5.3115 11.7283 7.35559
285 3 7.98818 11.7701 7.34714
334 3 5.41879 10.0567 9.51847
305 3 7.99175 10.3655 9.54737
28 1 4.38753 11.5079 12.2557
3 1 5.07054 9.92666 12.7505
16 1 6.28103 10.4599 11.9078
77 2 5.78362 10.5838 12.7888
58 1 7.77274 11.6906 12.9333
150 3 6.72916 14.2129 3.0863
106 3 5.27033 14.9765 0.90659
122 3 6.66798 12.7238 1.09419
102 3 4.10357 12.6119 0.922373
222 3 7.99696 14.8877 5.25991
202 3 5.30407 14.927 5.23874
218 3 6.61056 12.5542 5.21413
246 3 6.62821 14.0615 7.37483
298 3 5.29897 14.7583 9.46412
314 3 6.65081 12.4691 9.37744
76 2 5.38572 14.6783 11.8551
6 1 7.0335 14.8039 11.9161
33 1 5.06559 13.6687 11.9466
78 2 7.96568 14.8208 11.6989
51 1 4.80932 15.427 11.9614
110 3 6.6919 17.3248 1.01209
182 3 5.33237 16.5914 3.04428
206 3 6.73174 17.3206 5.24213
234 3 4.05343 17.2987 5.17994
278 3 5.35765 16.4177 7.38173
302 3 6.71851 17.2764 9.43591
68 2 4.06673 16.9626 11.7021
15 1 4.60356 17.8384 11.9623
135 3 10.8102 0.831841 0.891742
163 3 10.7342 2.48652 3.05661
159 3 9.31374 0.1781 3.06489
179 3 12.0334 0.20874 3.06976
231 3 10.69 1.02251 5.1563
254 3 9.3876 0.150736 7.34272
259 3 10.6384 2.4805 7.38201
275 3 11.9552 0.169887 7.37177
327 3 10.5814 0.906479 9.40304
5 1 8.82387 1.59059 12.011
40 1 10.4687 3.05375 11.9875
29 1 8.38188 0.0721549 11.8552
172 3 9.34143 4.83645 2.99479
120 3 10.8116 5.65434 0.962177
100 3 9.34188 3.34716 0.989245
148 3 12.0223 4.79187 3.06211
139 3 12.1051 3.13092 0.832291
196 3 9.32142 3.28425 5.1583
216 3 10.6802 5.63015 5.18003
244 3 12.027 4.84615 7.27642
235 3 12.0736 3.33083 5.2497
265 3 9.36116 4.82874 7.36884
312 3 10.7595 5.62225 9.35529
331 3 12.0773 3.45622 9.35082
291 3 9.38169 3.19401 9.49775
70 2 9.52553 3.18931 11.7886
85 2 8.3346 5.43232 12.818
10 1 9.02905 4.02977 12.3086
176 3 10.7956 7.14585 2.97338
132 3 9.39125 8.10811 0.995688
104 3 11.9959 8.00636 0.842925
228 3 9.37785 7.94124 5.22189
272 3 10.7459 7.19816 7.2218
200 3 12.0252 8.03691 5.01788
249 3 8.12635 7.12528 7.31963
296 3 11.9587 7.90167 9.40141
324 3 9.31 7.84234 9.44532
11 1 10.7992 6.83588 11.5496
89 2 10.8884 6.72167 12.5608
8 1 11.8543 6.44939 12.7055
44 1 9.0186 6.26347 12.7018
136 3 10.678 10.3568 1.00644
164 3 10.754 11.8171 3.09042
160 3 9.25925 9.55779 3.07851
232 3 10.7063 10.3106 5.19712
276 3 11.998 9.51869 7.35414
253 3 9.35268 9.44043 7.30077
260 3 10.7721 11.7941 7.41112
328 3 10.6346 10.219 9.39344
38 1 8.60253 11.883 11.5395
66 2 8.68137 12.1316 12.6097
26 1 10.3912 11.7305 13.4354
55 1 11.1118 10.4184 13.6496
93 2 11.0699 11.3371 13.8961
171 3 9.37706 14.1271 3.1501
119 3 10.741 14.8687 1.03315
99 3 9.37437 12.6925 0.955147
140 3 12.0335 12.6184 1.01151
147 3 12.0574 14.0397 3.09989
126 3 8.12588 14.881 1.13673
266 3 9.42938 14.0758 7.34117
215 3 10.7073 14.9327 5.25703
195 3 9.43688 12.6053 5.26116
243 3 12.0115 14.1732 7.35328
332 3 12.0045 12.5403 9.5031
42 1 10.9332 13.6642 10.728
292 3 9.2639 12.5921 9.40743
311 3 10.6851 14.856 9.49942
318 3 8.11973 14.8035 9.39524
19 1 8.49019 14.1102 12.0836
175 3 10.7811 16.5423 3.13076
131 3 9.28018 17.19 1.00742
103 3 11.9206 17.2183 0.967312
154 3 8.09396 16.5429 3.13354
227 3 9.43426 17.311 5.20118
271 3 10.7507 16.4784 7.27259
199 3 12.0766 17.2934 5.18274
295 3 12.0684 17.1929 9.42691
323 3 9.42682 17.2189 9.53486
250 3 8.13709 16.5235 7.37874
80 2 12.0376 17.207 11.6192
79 2 9.18066 17.3122 11.6018
41 1 11.0193 17.3853 11.9583
63 1 8.87508 16.5069 11.8831
107 3 13.3267 0.96743 0.997298
183 3 13.3871 2.60395 3.17676
151 3 14.7676 0.106131 3.05976
155 3 16.0773 2.52394 3.06296
127 3 16.0455 0.848439 0.976873
203 3 13.4154 0.887144 5.31492
223 3 16.0701 0.871496 5.25469
247 3 14.7897 0.135302 7.52176
279 3 13.3447 2.51547 7.45605
299 3 13.2998 0.972894 9.54253
319 3 16.0729 0.959337 9.55026
251 3 16.0977 2.48652 7.43331
17 1 15.2484 0.607874 11.9514
21 1 13.0778 1.65278 11.9139
91 2 13.3199 0.700671 11.658
82 2 16.0912 0.77494 11.7862
187 3 14.6612 4.87015 3.0223
144 3 13.2716 5.50439 1.03952
111 3 14.771 3.20318 0.950046
115 3 16.0765 5.63227 0.953739
240 3 13.3385 5.57895 5.16457
283 3 14.652 4.80893 7.34387
207 3 14.7875 3.29941 5.24901
211 3 16.0553 5.59765 5.16441
307 3 16.0242 5.66528 9.46304
336 3 13.2945 5.59481 9.4179
303 3 14.6971 3.23457 9.46315
87 2 12.488 3.41933 12.6662
54 1 12.589 3.91416 11.7577
52 1 13.085 4.08126 13.096
124 3 14.8065 7.90461 0.890738
168 3 13.3295 7.22015 2.88744
192 3 16.0881 7.10997 3.09157
220 3 14.6333 7.90966 5.17173
264 3 13.3347 7.17032 7.27284
287 3 15.9623 7.06914 7.28834
316 3 14.7524 7.96565 9.4759
45 1 14.0471 8.47821 12.8271
23 1 14.0075 6.57026 11.8233
84 2 14.1181 6.73593 12.6864
46 1 15.199 6.72161 12.7131
108 3 13.5099 10.2372 0.857294
184 3 13.5082 11.9302 2.97084
152 3 14.761 9.51793 3.01923
156 3 16.1285 11.8391 3.09268
180 3 12.1846 9.53734 2.89819
128 3 16.1593 10.1842 0.992666
224 3 16.1234 10.2983 5.14899
204 3 13.407 10.1944 5.16952
248 3 14.6868 9.40224 7.31221
252 3 16.1572 11.7514 7.33386
280 3 13.4362 11.8284 7.43059
300 3 13.3335 10.2509 9.48972
320 3 16.167 10.1069 9.41578
27 1 13.1962 9.6375 12.1096
65 2 13.6016 9.47861 12.9077
59 1 15.2299 10.1085 13.2607
75 2 15.918 10.9156 13.5032
30 1 13.2157 11.9469 11.6751
18 1 12.9502 12.3185 13.0926
188 3 14.799 14.1791 3.0065
143 3 13.4148 15.0128 0.974673
112 3 14.8772 12.4524 0.815776
239 3 13.4286 14.9004 5.21539
208 3 14.87 12.5923 5.2195
212 3 16.1456 14.9487 5.20088
236 3 12.1324 12.5771 5.24723
284 3 14.759 14.0722 7.36418
308 3 16.1072 14.7457 9.46442
335 3 13.4603 14.9044 9.45827
304 3 14.7556 12.508 9.42736
12 1 15.2127 14.9555 11.6537
31 1 13.3647 14.1097 11.9558
90 2 13.5141 15.0498 11.7988
94 2 13.355 12.705 12.3726
123 3 14.653 17.3311 1.03786
167 3 13.3947 16.5086 3.00205
191 3 16.1251 16.5876 3.04233
288 3 16.1016 16.4667 7.30381
219 3 14.7741 17.2933 5.22115
263 3 13.4272 16.6142 7.29252
315 3 14.7094 17.2038 9.48235
36 1 12.3331 18.1984 11.7031
24 1 13.0797 15.9332 11.7104
