ITEM: TIMESTEP
400000000
ITEM: NUMBER OF ATOMS
336
ITEM: BOX BOUNDS pp pp pp
0.0000000000000000e+00 1.6167135238600000e+01
0.0000000000000000e+00 1.8668199539200000e+01
0.0000000000000000e+00 2.5747400283800001e+01
ITEM: ATOMS id type x y z
117 3 2.59721 1.01158 0.933952
173 3 2.64542 2.48015 3.0645
169 3 1.25161 0.171746 3.08088
145 3 3.99961 0.185657 3.08932
213 3 2.55144 0.904857 5.27434
269 3 2.5723 2.46601 7.35242
241 3 3.9737 0.146328 7.37445
267 3 1.3026 0.104815 7.38744
309 3 2.65812 1.01976 9.42969
9 1 3.27026 3.08711 12.5513
83 2 3.30832 2.06114 12.7134
37 1 2.89383 1.84476 11.7552
7 1 0.0614385 1.85176 12.2433
69 2 0.177527 2.99262 13.2452
43 1 1.10337 2.93125 13.6267
157 3 1.14564 4.83352 3.05208
133 3 2.49585 5.57582 0.897017
129 3 1.24091 3.15968 0.983893
177 3 3.97154 4.8091 3.05347
101 3 3.88473 3.27443 0.978538
225 3 1.21516 3.31353 5.31557
229 3 2.64413 5.64638 5.17211
197 3 3.90627 3.24125 5.24922
293 3 3.96054 3.22673 9.42916
255 3 1.23569 4.84965 7.39845
325 3 2.47028 5.53041 9.452
321 3 1.27238 3.27926 9.52234
273 3 3.87845 4.86241 7.36645
53 1 0.402917 3.55459 12.235
49 1 3.89992 5.33516 11.9263
161 3 2.60562 7.11291 3.03848
98 3 1.35542 7.94585 0.939631
137 3 3.86789 7.88158 0.990257
194 3 1.23935 7.92337 5.22654
233 3 3.90912 7.91173 5.12014
257 3 2.59318 7.06897 7.30288
289 3 1.3172 7.85399 9.50787
329 3 3.94332 7.91984 9.44667
4 1 1.06904 7.63651 12.9201
61 1 2.73109 9.23768 12.9587
73 2 0.999087 6.62251 12.7829
50 1 1.3821 6.73155 11.8807
118 3 2.69482 10.2392 0.874743
174 3 2.68076 11.7461 3.04163
170 3 1.35933 9.45565 3.10297
146 3 3.98028 9.59874 3.04188
128 3 0.0258934 10.1987 0.999343
214 3 2.62855 10.2709 5.24408
270 3 2.69458 11.7169 7.30955
268 3 1.23892 9.51685 7.37461
310 3 2.65103 10.125 9.48834
242 3 4.031 9.48256 7.36216
322 3 1.34767 12.4105 9.62402
88 2 1.85998 9.50257 12.8463
60 1 0.804934 11.7763 12.4087
56 1 0.71002 10.4537 13.2307
48 1 1.96951 9.51727 11.7863
158 3 1.36883 14.2342 3.041
134 3 2.75849 14.9257 0.895305
130 3 1.37826 12.6702 1.05654
116 3 0.0743878 14.9923 1.02307
178 3 4.01987 14.1749 2.98278
230 3 2.63845 14.9269 5.22868
226 3 1.33943 12.5734 5.29397
198 3 3.97418 12.5472 5.15995
274 3 3.94489 14.0478 7.37264
256 3 1.27969 14.0011 7.36456
326 3 2.58998 14.832 9.40637
294 3 3.99567 12.5085 9.38236
2 1 1.15467 13.3435 12.1628
81 2 0.0948559 14.9435 11.6446
92 2 1.37213 12.4962 11.9382
34 1 2.92799 12.4626 11.7786
162 3 2.68002 16.483 3.00602
97 3 1.29842 17.2464 0.957928
138 3 3.99762 17.3747 0.940623
193 3 1.28959 17.2804 5.20797
258 3 2.60529 16.3935 7.33101
290 3 1.26358 17.131 9.41355
330 3 3.98372 17.1936 9.44064
1 1 0.738139 15.9184 11.5852
13 1 1.04975 17.9628 11.884
32 1 2.87076 17.2297 11.6454
95 2 1.642 17.162 11.6237
141 3 5.20684 1.04018 0.939153
165 3 5.26597 2.455 3.0958
189 3 7.99123 2.5938 2.95419
186 3 6.6706 0.131298 3.1313
114 3 7.89936 0.952266 0.867422
237 3 5.35736 1.00369 5.27543
261 3 5.36371 2.54618 7.3558
210 3 8.01421 0.94172 5.18695
306 3 7.98704 0.922806 9.4356
282 3 6.62623 0.0973196 7.41563
333 3 5.34344 0.913635 9.44877
286 3 8.0808 2.54991 7.4088
71 2 5.55538 0.863563 11.718
47 1 4.80688 1.36688 12.0459
57 1 6.53668 1.03988 11.8564
86 2 7.94549 0.906061 11.9596
149 3 6.60897 4.84638 3.05673
105 3 5.30578 5.59922 0.894637
121 3 6.55312 3.25328 0.991848
125 3 7.8967 5.59145 0.872566
221 3 7.96625 5.63618 5.17429
217 3 6.64882 3.23377 5.17441
201 3 5.35244 5.60213 5.09572
245 3 6.66409 4.77138 7.35187
317 3 7.95463 5.56728 9.44695
313 3 6.70104 3.29946 9.43386
297 3 5.31838 5.68008 9.32527
14 1 5.2206 5.60613 13.8075
72 2 4.26022 4.74318 12.6029
20 1 4.93188 4.17443 12.0985
25 1 8.00311 5.56864 11.6416
109 3 6.63949 7.88424 0.876435
181 3 5.35232 7.10043 2.97384
153 3 8.0207 7.18279 2.96845
205 3 6.76759 7.88998 5.16791
277 3 5.37136 7.1841 7.2275
301 3 6.63063 7.83391 9.39142
39 1 4.36653 7.87872 11.7528
67 2 4.22739 8.31799 12.7062
64 1 4.96463 7.67818 13.273
96 2 5.73319 6.41885 14.1651
62 1 6.62837 6.54482 13.5203
142 3 5.30341 10.2183 0.913569
166 3 5.29212 11.8189 3.08528
185 3 6.67395 9.43155 3.051
190 3 8.02907 11.7549 3.08213
113 3 7.92375 10.2191 1.02358
238 3 5.32509 10.1531 5.21396
285 3 7.99626 11.7702 7.34459
209 3 7.98492 10.3728 5.14827
305 3 8.02656 10.3552 9.5483
281 3 6.65062 9.4464 7.357
262 3 5.24748 11.7162 7.35756
334 3 5.40641 10.0321 9.5123
58 1 7.97513 11.5448 12.9162
16 1 6.11494 10.3387 11.9411
77 2 5.78582 10.5895 12.7713
3 1 5.27626 9.78726 12.9294
28 1 4.59458 11.387 12.2136
74 2 4.06391 12.3403 11.8921
150 3 6.73527 14.2046 3.12457
106 3 5.27322 14.9623 0.904438
122 3 6.65114 12.6934 1.09056
102 3 4.07067 12.6158 0.934531
202 3 5.3208 14.9401 5.24395
218 3 6.6005 12.5488 5.23477
222 3 7.98363 14.8779 5.24498
314 3 6.64302 12.5089 9.36651
246 3 6.61094 14.0819 7.38658
298 3 5.31121 14.745 9.47544
76 2 5.38427 14.6283 11.8578
78 2 7.91606 14.7535 11.6911
33 1 4.76604 13.785 12.3026
6 1 6.96331 14.6473 11.9912
51 1 4.91312 15.4734 11.884
110 3 6.68693 17.3169 0.990824
182 3 5.30746 16.5776 3.0517
206 3 6.74923 17.3487 5.24409
234 3 4.06291 17.2883 5.20957
278 3 5.36371 16.4129 7.39305
302 3 6.68612 17.2914 9.44096
68 2 4.10511 17.0312 11.6802
15 1 4.63224 17.6691 12.0651
135 3 10.8416 0.799831 0.891202
163 3 10.7076 2.50917 3.06312
159 3 9.31303 0.185086 3.06629
179 3 12.0429 0.200133 3.0739
231 3 10.6872 0.981341 5.15569
254 3 9.36873 0.158287 7.35508
259 3 10.6228 2.52386 7.39397
275 3 11.9722 0.158878 7.4042
327 3 10.5917 0.921517 9.40662
5 1 8.69781 1.64358 11.8816
29 1 8.57691 0.141811 12.0997
172 3 9.36737 4.86808 2.94461
120 3 10.7997 5.63817 0.977642
100 3 9.32497 3.35364 1.00106
148 3 11.9759 4.79384 3.05902
139 3 12.1074 3.11827 0.849364
196 3 9.30594 3.26329 5.14762
216 3 10.6687 5.64805 5.1671
244 3 12.0259 4.87921 7.29317
235 3 12.0659 3.3147 5.26079
331 3 12.0509 3.45346 9.34087
265 3 9.3579 4.85491 7.37362
312 3 10.7387 5.59688 9.33901
291 3 9.42266 3.21585 9.4878
70 2 9.55052 3.15328 11.8626
40 1 10.5799 3.1279 12.2429
10 1 9.03518 4.01164 12.1473
85 2 8.27208 5.49413 12.8296
176 3 10.814 7.18884 2.975
132 3 9.3901 8.09789 1.01794
104 3 11.9844 8.00591 0.861671
228 3 9.39026 7.91882 5.19029
272 3 10.7159 7.20137 7.22447
200 3 12.0659 8.01475 5.05556
249 3 8.09991 7.14167 7.32162
296 3 11.962 7.92147 9.40926
324 3 9.30764 7.83256 9.42411
35 1 8.13858 8.79369 10.4238
11 1 10.817 6.94807 11.5806
89 2 10.9432 6.63945 12.5861
8 1 11.9784 6.40896 12.7316
44 1 8.96211 6.27498 12.9168
136 3 10.6648 10.3575 1.00365
164 3 10.7449 11.8176 3.10312
160 3 9.2967 9.55959 3.08551
232 3 10.7196 10.2962 5.18905
253 3 9.36273 9.45101 7.28362
260 3 10.7742 11.7919 7.41982
276 3 11.9845 9.49475 7.36085
328 3 10.6305 10.2337 9.43459
38 1 8.62374 11.8844 11.6055
26 1 10.1009 11.9016 13.7787
55 1 11.0613 10.4102 13.4235
93 2 11.0772 11.368 13.8996
66 2 8.65477 12.1181 12.5988
171 3 9.34885 14.11 3.13446
119 3 10.7551 14.8924 0.987088
99 3 9.37559 12.6545 0.974611
140 3 12.0242 12.6062 0.984625
126 3 8.11292 14.9023 1.1391
147 3 12.0605 14.0532 3.10773
195 3 9.45682 12.6032 5.24473
215 3 10.7224 14.918 5.2379
266 3 9.44772 14.1107 7.32389
243 3 11.9979 14.1941 7.34402
292 3 9.24314 12.5844 9.44075
42 1 10.9991 13.5805 10.7033
311 3 10.6734 14.8572 9.4972
332 3 11.9945 12.5442 9.5265
318 3 8.14231 14.8201 9.39415
19 1 8.62646 13.9913 11.9688
175 3 10.7701 16.5362 3.09095
131 3 9.31134 17.1961 0.995956
103 3 11.9084 17.2093 0.954031
154 3 8.10949 16.5333 3.14544
227 3 9.42407 17.3053 5.16844
271 3 10.7339 16.4681 7.29104
199 3 12.0827 17.2869 5.21532
323 3 9.41307 17.2528 9.51789
295 3 12.0971 17.1983 9.45483
250 3 8.13905 16.5156 7.38508
41 1 11.134 17.4198 12.0174
80 2 12.0832 17.3005 11.6857
63 1 8.8667 16.3224 12.1331
79 2 9.22556 17.3016 11.6137
107 3 13.3551 0.961682 0.980217
183 3 13.3914 2.60194 3.13211
151 3 14.7162 0.122252 3.03047
155 3 16.0841 2.52391 3.07378
127 3 16.0312 0.842146 0.973348
203 3 13.4105 0.876588 5.33299
223 3 16.0725 0.840832 5.26073
319 3 16.0753 0.975048 9.53167
247 3 14.7676 0.173251 7.51754
279 3 13.3431 2.49165 7.43989
299 3 13.3252 0.980739 9.5415
251 3 16.0809 2.49425 7.4262
17 1 15.1956 0.316504 11.786
91 2 13.3283 0.727722 11.6313
21 1 13.1844 1.52195 12.0017
82 2 16.1182 0.774333 11.7632
187 3 14.6708 4.85227 3.04259
144 3 13.2523 5.51403 1.04515
111 3 14.7912 3.21918 0.976487
115 3 16.0955 5.6525 0.948826
207 3 14.7945 3.34518 5.24799
240 3 13.3711 5.56144 5.19251
211 3 16.0668 5.58657 5.16333
283 3 14.6535 4.79816 7.3581
336 3 13.3074 5.59315 9.41984
303 3 14.692 3.25652 9.45013
307 3 16.0141 5.64368 9.45033
22 1 16.0155 3.95393 10.3634
87 2 12.448 3.40915 12.6098
54 1 12.5629 3.64823 11.6495
52 1 12.8183 4.15555 13.1668
124 3 14.8076 7.92181 0.888225
168 3 13.3213 7.20076 2.89267
192 3 16.0584 7.14204 3.07269
220 3 14.6239 7.91926 5.17714
264 3 13.3109 7.16702 7.28884
287 3 15.9517 7.05717 7.31172
316 3 14.7481 7.97301 9.46717
45 1 13.6318 8.44897 12.926
46 1 15.1945 6.60182 12.9745
84 2 14.1259 6.70811 12.7749
23 1 13.825 6.65282 11.8498
108 3 13.4898 10.2478 0.830116
184 3 13.5254 11.9297 2.94149
152 3 14.7565 9.49995 3.03289
156 3 16.1333 11.8544 3.08982
180 3 12.185 9.55197 2.9183
204 3 13.3885 10.2451 5.14998
248 3 14.7022 9.41634 7.26939
224 3 16.1085 10.2882 5.15519
252 3 16.1463 11.7101 7.30073
280 3 13.4123 11.8002 7.43284
300 3 13.3303 10.2412 9.49736
320 3 16.1453 10.0883 9.38751
27 1 13.4348 9.53587 12.0099
75 2 15.9589 10.8694 13.3734
65 2 13.5199 9.41938 12.8976
59 1 15.13 10.3145 13.2201
30 1 13.1973 12.075 11.3199
188 3 14.81 14.1793 3.00246
143 3 13.4374 14.9911 0.960998
112 3 14.8739 12.4569 0.839675
239 3 13.4449 14.9133 5.21677
208 3 14.8706 12.5992 5.1999
212 3 16.1565 14.9522 5.18904
236 3 12.1369 12.6048 5.27362
308 3 16.1024 14.7356 9.45844
284 3 14.7823 14.0726 7.37085
335 3 13.4655 14.9042 9.45789
304 3 14.7679 12.4981 9.43703
90 2 13.557 15.0296 11.7844
31 1 13.2229 14.11 11.9979
12 1 15.2718 15.1091 11.7901
94 2 13.4056 12.7411 12.3697
18 1 12.6775 12.5796 13.1773
123 3 14.6382 17.3341 1.01295
167 3 13.3548 16.5123 2.98765
191 3 16.1579 16.5648 3.04887
219 3 14.7652 17.3081 5.20698
263 3 13.4115 16.6046 7.29792
288 3 16.1242 16.4801 7.33134
315 3 14.6985 17.1895 9.45604
36 1 12.5123 18.3868 11.7456
24 1 13.1004 15.9573 11.8538
