ITEM: TIMESTEP
400000000
ITEM: NUMBER OF ATOMS
336
ITEM: BOX BOUNDS pp pp pp
0.0000000000000000e+00 1.6167135238600000e+01
0.0000000000000000e+00 1.8668199539200000e+01
0.0000000000000000e+00 2.5747400283800001e+01
ITEM: ATOMS id type x y z
117 3 2.60821 1.01607 0.927655
173 3 2.63467 2.49914 3.06598
169 3 1.22874 0.200174 3.08892
145 3 3.99574 0.155818 3.06268
213 3 2.52994 0.884275 5.28569
269 3 2.57782 2.45633 7.36868
267 3 1.28494 0.119024 7.37844
309 3 2.67003 1.01922 9.46259
241 3 3.99589 0.142561 7.40142
37 1 2.88432 1.90086 11.8032
83 2 3.26138 2.07334 12.6778
7 1 0.0591495 1.75137 12.2373
9 1 3.16278 3.04944 12.7561
69 2 0.151777 2.96891 13.1818
43 1 0.884343 2.8604 13.7719
157 3 1.17726 4.82813 3.04228
133 3 2.50754 5.59348 0.900777
129 3 1.2223 3.17946 0.972967
177 3 3.99333 4.81301 3.03568
101 3 3.86698 3.2697 0.994907
197 3 3.87842 3.22654 5.26396
229 3 2.65521 5.61588 5.15252
225 3 1.22157 3.33046 5.31226
273 3 3.91681 4.87661 7.40072
293 3 3.96238 3.19674 9.41962
255 3 1.21165 4.84652 7.3991
325 3 2.48309 5.53071 9.47169
321 3 1.27159 3.26692 9.54058
49 1 4.01904 5.44959 12.0288
53 1 0.251389 3.58203 12.3589
161 3 2.62458 7.12894 3.04145
98 3 1.35433 7.95469 0.977973
137 3 3.86029 7.91199 1.00475
194 3 1.24117 7.9385 5.22606
257 3 2.56669 7.05694 7.34083
233 3 3.93929 7.92048 5.12874
289 3 1.34513 7.83784 9.51525
329 3 3.94446 7.90816 9.46171
4 1 1.1894 7.566 13.1152
50 1 1.06745 6.87653 11.6983
61 1 2.91528 9.13841 13.0184
73 2 1.01635 6.60766 12.7618
118 3 2.66143 10.2839 0.872515
174 3 2.66048 11.7463 3.05732
170 3 1.35035 9.45097 3.08757
146 3 3.99531 9.57304 3.03893
214 3 2.64575 10.2631 5.25127
270 3 2.685 11.7354 7.33715
242 3 4.04002 9.4606 7.3538
268 3 1.24337 9.51329 7.36537
310 3 2.62826 10.1345 9.48323
320 3 0.00490873 10.1135 9.40605
322 3 1.32678 12.426 9.62504
56 1 0.702534 10.3299 13.4415
60 1 0.62612 11.7771 12.3664
88 2 1.85187 9.48171 12.8344
74 2 3.95656 12.3054 11.8444
48 1 1.90596 9.39389 11.7854
158 3 1.37526 14.2154 3.03477
134 3 2.75626 14.9356 0.91007
130 3 1.37045 12.6786 1.04936
116 3 0.0637597 14.9823 1.01846
178 3 4.00157 14.1582 2.99463
226 3 1.32706 12.5672 5.26179
230 3 2.62686 14.9037 5.22089
198 3 3.97485 12.5325 5.15917
274 3 3.95589 14.0437 7.37704
256 3 1.30478 14.0097 7.36912
326 3 2.57868 14.8396 9.42361
294 3 3.99335 12.5115 9.37657
81 2 0.137851 14.8945 11.648
2 1 1.09877 13.3952 12.4618
92 2 1.35462 12.5079 11.8826
34 1 2.83444 12.5063 11.9864
162 3 2.68033 16.4759 3.02363
97 3 1.26431 17.2719 0.931548
138 3 3.97777 17.3666 0.900867
193 3 1.32739 17.2446 5.23019
258 3 2.61291 16.3971 7.31469
290 3 1.24462 17.13 9.42863
330 3 3.96569 17.1892 9.43055
1 1 0.527861 15.7689 11.5921
13 1 1.18804 17.9173 12.0336
95 2 1.6159 17.1685 11.632
32 1 2.6701 17.0861 11.9981
141 3 5.19262 1.0265 0.901551
165 3 5.25474 2.44297 3.11281
186 3 6.6687 0.142711 3.15605
189 3 7.99933 2.57634 2.95832
114 3 7.90512 0.953423 0.891913
237 3 5.36785 0.993292 5.27882
210 3 8.02127 0.954655 5.20374
306 3 8.00358 0.912327 9.44903
286 3 8.07983 2.58132 7.40137
261 3 5.36613 2.5449 7.37674
282 3 6.62659 0.114658 7.41001
333 3 5.34436 0.912687 9.45217
57 1 6.65859 0.942371 11.9727
71 2 5.55992 0.89525 11.7232
47 1 5.2001 1.3353 12.394
86 2 7.99144 0.866751 11.9558
149 3 6.6151 4.8741 3.05314
105 3 5.33122 5.59355 0.900546
121 3 6.54581 3.22672 0.978196
125 3 7.90364 5.6031 0.862619
217 3 6.66787 3.26445 5.18236
201 3 5.3567 5.60334 5.09163
245 3 6.6549 4.78661 7.33245
221 3 7.98185 5.63116 5.19416
313 3 6.71108 3.31446 9.43866
297 3 5.30671 5.67797 9.31682
317 3 7.93048 5.56082 9.47004
72 2 4.29622 4.73946 12.5649
14 1 5.2968 5.81904 13.7714
20 1 4.96725 4.12882 12.2573
25 1 7.74357 5.34185 11.7952
109 3 6.64519 7.88816 0.87799
181 3 5.3289 7.10487 2.97832
153 3 8.0335 7.19959 2.95831
205 3 6.75666 7.90771 5.16043
277 3 5.37715 7.17158 7.2395
301 3 6.63064 7.84564 9.38295
35 1 7.94089 8.91109 10.4428
39 1 4.45575 8.19804 11.8272
67 2 4.23395 8.27963 12.7127
96 2 5.76593 6.39083 14.1344
64 1 4.77461 7.6009 13.2375
62 1 6.58315 6.22597 13.7135
142 3 5.30451 10.2222 0.90892
166 3 5.29819 11.8283 3.09551
185 3 6.66498 9.43507 3.04696
190 3 8.01458 11.7375 3.06413
113 3 7.92681 10.2123 1.00046
209 3 7.96688 10.3469 5.17579
238 3 5.32156 10.1676 5.20743
281 3 6.64427 9.44716 7.34909
285 3 8.00599 11.7671 7.33526
305 3 8.00025 10.3619 9.54675
262 3 5.29814 11.7365 7.35863
334 3 5.425 10.0496 9.53182
3 1 4.98018 9.81332 12.7967
77 2 5.81101 10.59 12.7428
16 1 6.3093 10.324 11.9277
28 1 4.37633 11.5084 12.0707
58 1 7.97472 11.5821 12.9441
150 3 6.72892 14.2091 3.0904
106 3 5.27932 14.9596 0.902669
122 3 6.66304 12.7329 1.10573
102 3 4.09737 12.6273 0.941626
222 3 7.99227 14.8876 5.24821
202 3 5.31754 14.9308 5.24122
218 3 6.6002 12.5528 5.21435
246 3 6.61308 14.0648 7.38455
298 3 5.29642 14.7558 9.44877
314 3 6.65393 12.4615 9.37574
76 2 5.41797 14.668 11.8369
33 1 5.02094 13.7162 11.8885
6 1 6.99776 14.7931 11.84
78 2 7.98852 14.8656 11.7242
51 1 4.80026 15.4323 11.9756
110 3 6.69505 17.3282 1.00679
182 3 5.3239 16.5881 3.04473
234 3 4.06599 17.3047 5.19829
206 3 6.72202 17.3219 5.24138
278 3 5.3744 16.4187 7.38235
302 3 6.71679 17.2701 9.41738
68 2 4.06108 16.9593 11.707
15 1 4.57205 17.8009 11.8373
135 3 10.8238 0.833395 0.882565
163 3 10.7183 2.47929 3.05082
159 3 9.30662 0.189808 3.05815
179 3 12.0378 0.227525 3.07394
231 3 10.6792 1.02947 5.15949
254 3 9.37694 0.162587 7.34718
275 3 11.9647 0.169587 7.37011
259 3 10.6376 2.48716 7.37228
327 3 10.5908 0.906617 9.40629
5 1 8.91414 1.63807 12.0382
40 1 10.5227 3.04464 11.9501
29 1 8.40785 0.0339011 11.9121
172 3 9.32932 4.84694 3.01096
120 3 10.8076 5.65875 0.977188
100 3 9.32105 3.34945 0.991052
148 3 12.006 4.78599 3.05727
139 3 12.1135 3.13021 0.833655
196 3 9.31995 3.28231 5.16013
216 3 10.6887 5.64262 5.17693
244 3 12.042 4.84634 7.28564
235 3 12.0742 3.32336 5.26446
331 3 12.0852 3.45449 9.34233
291 3 9.38329 3.19226 9.51456
265 3 9.34933 4.826 7.36847
312 3 10.768 5.60988 9.35973
70 2 9.49335 3.16915 11.7898
85 2 8.30938 5.44256 12.8202
10 1 9.14011 4.12385 12.1981
176 3 10.8089 7.13721 2.9766
132 3 9.38465 8.09761 0.985086
104 3 11.9899 8.00715 0.855585
228 3 9.39568 7.93595 5.20682
272 3 10.7579 7.19301 7.21029
200 3 12.0216 8.03718 5.03783
249 3 8.15019 7.13142 7.33256
324 3 9.29458 7.82515 9.43892
296 3 11.9511 7.90018 9.40743
11 1 10.8414 6.90904 11.5747
89 2 10.857 6.70321 12.5659
8 1 11.7756 6.39978 12.6163
44 1 9.03046 6.33519 12.7114
136 3 10.6889 10.3514 1.0027
164 3 10.7538 11.8202 3.07155
160 3 9.26151 9.54664 3.06046
232 3 10.7032 10.2974 5.21184
253 3 9.35886 9.43922 7.29842
276 3 11.9888 9.52578 7.33827
260 3 10.7631 11.7982 7.3986
328 3 10.6288 10.2017 9.40251
38 1 8.6475 12.0279 11.6739
66 2 8.69501 12.1306 12.6192
26 1 10.3413 11.8586 13.5091
93 2 11.0563 11.33 13.9107
55 1 11.0865 10.437 13.5192
171 3 9.36583 14.1314 3.14072
119 3 10.7473 14.8712 1.02778
99 3 9.38627 12.6906 0.946491
140 3 12.0317 12.6134 1.00215
126 3 8.1304 14.8833 1.14127
147 3 12.0603 14.032 3.10626
195 3 9.45277 12.589 5.25436
215 3 10.707 14.915 5.24459
266 3 9.43232 14.0708 7.34779
243 3 12.0173 14.1629 7.35369
292 3 9.25165 12.5809 9.416
42 1 10.8744 13.6326 10.732
332 3 12.0003 12.5305 9.50312
311 3 10.6859 14.8605 9.50778
318 3 8.12545 14.7945 9.4132
19 1 8.29599 14.0117 11.9628
175 3 10.7858 16.5432 3.12576
131 3 9.28302 17.1861 1.01877
103 3 11.9214 17.2241 0.966388
154 3 8.09035 16.5523 3.14362
227 3 9.4168 17.3133 5.2055
271 3 10.7504 16.4795 7.29028
199 3 12.0837 17.3019 5.18373
323 3 9.43368 17.2261 9.52832
295 3 12.0756 17.1891 9.42673
250 3 8.12918 16.5205 7.39076
79 2 9.18564 17.3072 11.5836
80 2 12.04 17.2218 11.6392
63 1 8.82967 16.4678 11.8842
41 1 11.0074 17.3873 11.9482
107 3 13.3296 0.982885 0.98046
183 3 13.376 2.60594 3.16785
151 3 14.757 0.107839 3.0671
155 3 16.0738 2.52665 3.06034
127 3 16.0435 0.848583 0.98402
203 3 13.4159 0.907888 5.32189
223 3 16.0771 0.88409 5.2467
247 3 14.789 0.110246 7.5169
279 3 13.3428 2.511 7.43808
299 3 13.3102 0.972697 9.54809
319 3 16.0784 0.965992 9.54421
251 3 16.093 2.48631 7.42876
21 1 13.0159 1.64949 11.9482
17 1 15.2923 0.524619 12.022
91 2 13.3865 0.709106 11.6529
82 2 16.0652 0.764057 11.7702
187 3 14.6632 4.8543 3.02442
144 3 13.2688 5.50505 1.05
111 3 14.7769 3.20048 0.952939
115 3 16.0703 5.63433 0.945519
240 3 13.3423 5.5849 5.15899
207 3 14.795 3.30083 5.2553
211 3 16.0529 5.60247 5.17805
283 3 14.6655 4.78125 7.35851
336 3 13.3101 5.5959 9.41242
303 3 14.7005 3.23276 9.46559
307 3 16.0264 5.66699 9.46021
22 1 16.1467 4.19496 10.5957
87 2 12.4756 3.41785 12.6174
52 1 13.0776 4.06309 13.1299
54 1 12.5598 3.86557 11.783
124 3 14.8131 7.89918 0.884636
168 3 13.3312 7.21372 2.90311
192 3 16.0761 7.10274 3.09524
220 3 14.6258 7.89981 5.18626
264 3 13.3273 7.1675 7.26946
287 3 15.9866 7.06398 7.28661
316 3 14.7482 7.97509 9.49178
46 1 15.0342 6.77013 12.8406
45 1 13.9048 8.57009 13.0202
84 2 14.1464 6.7338 12.7152
23 1 14.0772 6.69991 11.7156
108 3 13.509 10.2331 0.858709
184 3 13.5062 11.9468 2.98231
152 3 14.7728 9.51099 3.0112
156 3 16.1326 11.8399 3.08476
128 3 16.1503 10.1901 1.0029
180 3 12.1889 9.52759 2.89322
224 3 16.1291 10.2971 5.13856
204 3 13.4107 10.2017 5.16581
248 3 14.6923 9.38648 7.29433
252 3 16.1586 11.7489 7.33206
280 3 13.4258 11.828 7.43809
300 3 13.3335 10.2524 9.49149
27 1 13.2549 9.67656 12.0042
30 1 13.0578 11.9962 11.6128
59 1 15.199 10.2531 13.2255
75 2 15.9486 10.9158 13.496
65 2 13.6069 9.45952 12.8625
18 1 12.8717 12.2708 13.1394
188 3 14.8016 14.1898 2.99625
143 3 13.4197 15.008 0.97665
112 3 14.8942 12.4662 0.822013
239 3 13.4319 14.9002 5.222
208 3 14.8558 12.5779 5.22199
212 3 16.1548 14.9479 5.20948
236 3 12.1421 12.5825 5.25279
308 3 16.1088 14.7274 9.4696
284 3 14.7642 14.0826 7.37658
335 3 13.4532 14.909 9.44019
304 3 14.7548 12.5014 9.42261
12 1 15.2161 15.0395 11.6996
90 2 13.5199 15.0585 11.8494
31 1 13.2808 14.0495 11.9929
94 2 13.3788 12.641 12.3837
123 3 14.6516 17.3298 1.04449
167 3 13.4108 16.5147 2.99036
191 3 16.1495 16.5931 3.04322
219 3 14.7639 17.2922 5.21051
263 3 13.4303 16.6183 7.29013
288 3 16.0984 16.4703 7.30977
315 3 14.7024 17.1957 9.48671
36 1 12.3813 18.1112 11.646
24 1 13.1162 15.9784 11.6165
