ITEM: TIMESTEP
400000000
ITEM: NUMBER OF ATOMS
336
ITEM: BOX BOUNDS pp pp pp
0.0000000000000000e+00 1.6167135238600000e+01
0.0000000000000000e+00 1.8668199539200000e+01
0.0000000000000000e+00 2.5747400283800001e+01
ITEM: ATOMS id type x y z
117 3 2.61684 1.03178 0.949201
173 3 2.62932 2.48102 3.07988
169 3 1.22025 0.189673 3.079
145 3 4.00345 0.166059 3.08498
213 3 2.5277 0.87329 5.2671
269 3 2.59885 2.44164 7.38908
267 3 1.29938 0.103392 7.38062
309 3 2.6609 1.03089 9.45401
241 3 4.00333 0.146373 7.38984
7 1 0.167574 1.69609 12.1983
83 2 3.23075 2.05709 12.6741
37 1 3.07298 1.73329 11.6995
9 1 3.1072 3.0738 12.7418
69 2 0.130055 2.98289 13.2234
43 1 1.07906 2.9715 13.7998
157 3 1.16403 4.83349 3.05042
133 3 2.50453 5.583 0.904286
129 3 1.23368 3.18682 0.976719
177 3 3.97506 4.80237 3.04679
101 3 3.884 3.27778 1.00097
229 3 2.63413 5.62749 5.13716
225 3 1.23961 3.33726 5.3254
197 3 3.90112 3.24243 5.28418
325 3 2.4999 5.52497 9.46807
293 3 3.96425 3.20151 9.41771
255 3 1.21941 4.83203 7.39527
321 3 1.26511 3.25867 9.52334
273 3 3.88139 4.87251 7.38669
22 1 0.0309513 4.19539 10.5253
53 1 0.264459 3.62408 12.3343
161 3 2.61225 7.11022 3.02393
98 3 1.36069 7.95802 0.968875
137 3 3.86514 7.92538 1.00187
194 3 1.2549 7.94898 5.22778
257 3 2.56378 7.07756 7.32743
233 3 3.94464 7.90533 5.1251
289 3 1.34609 7.82265 9.52737
329 3 3.90349 7.91055 9.44664
73 2 0.979162 6.6192 12.7755
61 1 2.78857 9.24817 12.9836
4 1 1.00545 7.56421 13.1702
50 1 1.25998 6.89809 11.7082
48 1 1.80388 9.28539 11.881
118 3 2.66539 10.2586 0.865538
174 3 2.68393 11.7441 3.0469
170 3 1.34145 9.4678 3.07951
146 3 4.01517 9.58207 3.04328
128 3 0.00125912 10.188 0.993342
214 3 2.65548 10.2403 5.23152
270 3 2.69449 11.7304 7.33988
242 3 4.03747 9.45876 7.34386
268 3 1.23621 9.4975 7.37964
310 3 2.63603 10.1435 9.48436
322 3 1.3305 12.4181 9.61788
88 2 1.91911 9.50581 12.9015
60 1 0.624312 11.8992 12.2805
56 1 0.653431 10.4392 13.4845
74 2 3.97178 12.2621 11.8697
158 3 1.37174 14.2043 3.03578
134 3 2.76828 14.9201 0.901915
130 3 1.34583 12.6769 1.07379
116 3 0.0606379 15.0052 1.01995
178 3 4.01571 14.1738 2.98518
274 3 3.96738 14.059 7.34932
230 3 2.6397 14.9297 5.21977
226 3 1.34197 12.5678 5.2582
198 3 3.97752 12.5185 5.16708
256 3 1.30518 13.9814 7.40351
326 3 2.58491 14.835 9.43094
294 3 4.00443 12.5094 9.4009
81 2 0.102657 14.9232 11.7193
2 1 1.14039 13.2639 12.4081
92 2 1.39605 12.4812 11.9032
34 1 2.818 12.483 11.9146
162 3 2.68405 16.4882 3.01006
97 3 1.27585 17.2657 0.934505
138 3 3.96642 17.3791 0.912641
193 3 1.32686 17.2579 5.22014
258 3 2.60383 16.3988 7.33639
290 3 1.23026 17.1187 9.407
330 3 3.94398 17.1813 9.45446
1 1 0.595203 15.7422 11.501
13 1 1.13048 17.9649 12.1185
32 1 2.58428 17.0901 11.7487
95 2 1.61647 17.1845 11.6076
141 3 5.19716 1.03946 0.921193
165 3 5.26053 2.44999 3.10639
186 3 6.67941 0.151113 3.13237
114 3 7.90754 0.942502 0.871898
189 3 7.9826 2.56815 2.94916
210 3 8.04345 0.950367 5.18767
237 3 5.37444 0.999206 5.28285
286 3 8.07217 2.57598 7.41044
261 3 5.35803 2.53202 7.36571
282 3 6.63898 0.101641 7.42061
333 3 5.34707 0.899534 9.45183
306 3 7.98463 0.917369 9.41958
57 1 6.59362 0.949483 12.0034
71 2 5.53657 0.9019 11.7722
47 1 4.94796 1.37199 12.3495
86 2 7.96585 0.908041 12.0074
149 3 6.62011 4.89014 3.05185
105 3 5.33023 5.59423 0.879186
121 3 6.53865 3.2189 0.975107
125 3 7.9037 5.61177 0.86797
201 3 5.36015 5.59285 5.10554
217 3 6.69583 3.25232 5.18516
245 3 6.66431 4.79163 7.33443
221 3 7.98023 5.63944 5.19377
317 3 7.945 5.56815 9.46785
297 3 5.29903 5.67965 9.33121
313 3 6.71848 3.30844 9.44363
72 2 4.27942 4.7368 12.5601
20 1 5.03877 4.10975 12.2233
14 1 5.41469 5.72126 13.6505
25 1 7.98866 5.46164 11.7164
49 1 4.06137 5.28895 11.9098
109 3 6.62642 7.89084 0.854935
181 3 5.31952 7.09346 2.97901
153 3 8.042 7.1703 2.94097
205 3 6.75969 7.90485 5.17895
277 3 5.36109 7.176 7.22902
301 3 6.61876 7.84197 9.38309
35 1 7.88709 8.97556 10.5456
64 1 4.89164 7.56922 13.2148
39 1 4.5415 8.21361 11.6926
96 2 5.79265 6.41352 14.079
67 2 4.22687 8.27947 12.7464
62 1 6.59371 6.29551 13.8226
142 3 5.32921 10.2248 0.902905
166 3 5.28759 11.8209 3.0979
185 3 6.66791 9.42953 3.04777
190 3 8.02425 11.7589 3.06235
113 3 7.9258 10.2267 1.0221
238 3 5.32571 10.1592 5.18322
285 3 7.98784 11.7688 7.34178
209 3 7.95158 10.3563 5.16829
281 3 6.63697 9.45243 7.35903
262 3 5.29875 11.7303 7.35725
334 3 5.42107 10.0551 9.51463
305 3 7.98641 10.3704 9.55262
28 1 4.38777 11.5133 12.1646
3 1 5.00697 9.78169 12.842
77 2 5.81163 10.553 12.7979
16 1 6.33608 10.4043 12.0881
58 1 7.89646 11.7566 12.8953
150 3 6.74337 14.2193 3.08574
106 3 5.27931 14.9886 0.913307
122 3 6.67262 12.7096 1.0852
102 3 4.10217 12.611 0.909844
202 3 5.31143 14.9303 5.23812
218 3 6.61642 12.5532 5.23288
222 3 7.99136 14.8984 5.26176
246 3 6.60645 14.0751 7.39287
298 3 5.29251 14.753 9.45664
314 3 6.65195 12.4603 9.37752
76 2 5.37701 14.7051 11.8418
33 1 5.13737 13.7815 12.0633
6 1 6.94454 14.7539 11.8362
78 2 7.96002 14.8155 11.6818
51 1 4.78187 15.4867 11.9099
110 3 6.68197 17.3112 1.00307
182 3 5.33713 16.6008 3.03707
206 3 6.73627 17.3097 5.23729
234 3 4.06056 17.2902 5.19101
278 3 5.36035 16.413 7.37589
302 3 6.71589 17.2822 9.45471
68 2 4.04566 16.9783 11.7028
15 1 4.50655 17.8049 11.887
135 3 10.822 0.843792 0.903588
163 3 10.7211 2.49395 3.05007
159 3 9.31676 0.175612 3.0643
179 3 12.0436 0.200044 3.06976
231 3 10.6877 0.995612 5.16384
254 3 9.38555 0.13439 7.33648
259 3 10.625 2.49255 7.3938
327 3 10.5689 0.907707 9.4023
275 3 11.9528 0.178054 7.38336
5 1 8.76979 1.6106 11.8487
29 1 8.36282 0.0256183 11.8248
40 1 10.5087 2.99656 12.1106
172 3 9.34606 4.84858 2.9882
120 3 10.8191 5.65251 0.970098
100 3 9.34297 3.35362 0.980595
139 3 12.1084 3.12383 0.83774
148 3 12.014 4.7965 3.06261
216 3 10.676 5.63437 5.17185
196 3 9.31175 3.28377 5.1527
235 3 12.0925 3.3214 5.26037
244 3 12.0384 4.86447 7.28019
291 3 9.39272 3.19618 9.48589
265 3 9.36654 4.83226 7.36249
331 3 12.0855 3.45194 9.34917
312 3 10.7726 5.6296 9.34965
70 2 9.52493 3.1828 11.8291
85 2 8.35027 5.45046 12.8127
10 1 9.15186 4.08826 12.281
176 3 10.7845 7.17057 2.96582
132 3 9.38737 8.09543 0.977887
104 3 11.9939 7.99901 0.858362
228 3 9.37687 7.93585 5.22286
272 3 10.7356 7.2118 7.22519
200 3 12.0356 8.0259 5.01724
249 3 8.13112 7.13 7.31912
296 3 11.9667 7.90834 9.39445
324 3 9.31735 7.84283 9.44345
11 1 10.795 6.89369 11.5841
89 2 10.8734 6.6805 12.5786
8 1 11.9912 6.37687 12.7154
44 1 9.0875 6.27901 12.7776
136 3 10.6809 10.3422 1.00522
164 3 10.7548 11.8214 3.10748
160 3 9.27301 9.55888 3.07964
232 3 10.7039 10.3076 5.19135
276 3 12.0003 9.50675 7.34834
253 3 9.34812 9.44895 7.29133
260 3 10.763 11.7916 7.41971
328 3 10.6466 10.2079 9.39941
38 1 8.56249 11.9174 11.5866
26 1 10.3437 11.8094 13.5144
93 2 11.0566 11.3498 13.8842
55 1 11.303 10.4059 13.6459
66 2 8.68485 12.1379 12.6147
171 3 9.38223 14.1267 3.14642
119 3 10.758 14.8649 1.02316
99 3 9.36993 12.6852 0.963283
140 3 12.0268 12.6167 1.02316
126 3 8.12148 14.8873 1.13157
147 3 12.0532 14.0302 3.10799
215 3 10.7131 14.9254 5.26261
195 3 9.4537 12.6031 5.26292
243 3 11.9936 14.1792 7.34633
266 3 9.42399 14.082 7.33597
292 3 9.27002 12.5849 9.4191
332 3 12.0075 12.5396 9.52201
42 1 10.8293 13.69 10.7745
311 3 10.6933 14.8464 9.50342
318 3 8.11457 14.8144 9.40529
19 1 8.40154 14.0482 12.0094
175 3 10.7726 16.5459 3.11482
131 3 9.27227 17.2 1.00027
103 3 11.9299 17.2152 0.969695
154 3 8.09626 16.5297 3.12319
227 3 9.42147 17.3254 5.19195
271 3 10.7356 16.477 7.26988
199 3 12.0787 17.2972 5.18624
323 3 9.42374 17.2094 9.52436
295 3 12.0707 17.1965 9.43398
250 3 8.13763 16.5156 7.37418
63 1 8.96166 16.5442 11.9931
80 2 12.0582 17.2127 11.6634
79 2 9.16364 17.306 11.5997
41 1 11.0257 17.3557 12.0431
107 3 13.3322 0.971735 0.992874
183 3 13.3816 2.59988 3.17315
151 3 14.7555 0.112832 3.05348
155 3 16.0574 2.52228 3.06725
127 3 16.0405 0.839846 0.98566
203 3 13.4133 0.887099 5.31532
223 3 16.0582 0.86052 5.26397
247 3 14.7735 0.138678 7.52015
279 3 13.3559 2.50188 7.47214
319 3 16.0825 0.962918 9.53416
299 3 13.3039 0.990088 9.53894
251 3 16.0867 2.46667 7.42991
91 2 13.3131 0.70275 11.6564
21 1 13.1428 1.61417 11.8414
17 1 15.1802 0.534737 11.9312
82 2 16.0414 0.762786 11.7858
187 3 14.6552 4.86879 3.03035
144 3 13.2555 5.48855 1.03935
111 3 14.78 3.20123 0.946124
115 3 16.0853 5.63421 0.960066
240 3 13.3397 5.57902 5.15642
207 3 14.7793 3.31475 5.24273
211 3 16.0583 5.59284 5.15516
283 3 14.643 4.81937 7.35697
307 3 16.0181 5.66892 9.46053
336 3 13.2847 5.57966 9.41838
303 3 14.6796 3.24368 9.47137
52 1 12.9899 3.90552 13.3455
54 1 12.6531 3.87545 11.721
87 2 12.4989 3.40665 12.6255
124 3 14.811 7.90574 0.903709
168 3 13.3246 7.21532 2.88419
192 3 16.0941 7.11443 3.09651
220 3 14.6388 7.89678 5.17362
264 3 13.3512 7.17305 7.28068
287 3 15.9563 7.08791 7.29983
316 3 14.737 7.96984 9.47008
45 1 13.9171 8.40189 12.9159
46 1 15.1223 6.6982 12.6655
23 1 13.8691 6.57677 11.9817
84 2 14.1421 6.72334 12.7132
108 3 13.4981 10.2304 0.856868
184 3 13.5276 11.9004 2.96928
152 3 14.7622 9.50905 3.01735
156 3 16.1192 11.8456 3.08354
180 3 12.1881 9.53932 2.88953
224 3 16.1211 10.3095 5.14545
204 3 13.4172 10.2021 5.16619
248 3 14.6992 9.41148 7.32807
252 3 16.1525 11.7516 7.33054
280 3 13.4339 11.8258 7.42591
300 3 13.3457 10.2541 9.49929
320 3 16.1504 10.0849 9.42542
27 1 13.1834 9.6628 12.1205
65 2 13.5586 9.47122 12.9107
59 1 15.2499 10.1746 13.3735
30 1 13.185 12.0664 11.6621
75 2 15.9283 10.8992 13.4527
18 1 12.9704 12.3706 13.1082
188 3 14.7998 14.1844 3.00696
143 3 13.4182 15.0011 0.977701
112 3 14.8838 12.4567 0.815199
208 3 14.8685 12.598 5.20639
239 3 13.4387 14.8863 5.22304
212 3 16.149 14.954 5.19792
236 3 12.1373 12.5832 5.25169
308 3 16.0999 14.7518 9.46339
284 3 14.7768 14.0756 7.36614
335 3 13.4624 14.8973 9.45654
304 3 14.764 12.5139 9.41832
12 1 15.215 14.9826 11.6428
94 2 13.3699 12.7051 12.3892
90 2 13.5615 15.0258 11.8618
31 1 13.3797 13.9381 11.9216
123 3 14.6615 17.35 1.02529
167 3 13.3991 16.5137 2.9824
191 3 16.1412 16.5706 3.05613
219 3 14.769 17.2692 5.21385
288 3 16.097 16.4634 7.32238
263 3 13.4212 16.6105 7.2885
315 3 14.713 17.2059 9.47059
36 1 12.4501 18.2088 11.633
24 1 13.1499 15.8893 11.6251
