ITEM: TIMESTEP
400000000
ITEM: NUMBER OF ATOMS
336
ITEM: BOX BOUNDS pp pp pp
0.0000000000000000e+00 1.6167135238600000e+01
0.0000000000000000e+00 1.8668199539200000e+01
0.0000000000000000e+00 2.5747400283800001e+01
ITEM: ATOMS id type x y z
117 3 2.61124 1.02263 0.924527
173 3 2.64326 2.48327 3.07321
169 3 1.25926 0.176227 3.07589
145 3 4.00212 0.198306 3.07993
213 3 2.5507 0.899032 5.28626
269 3 2.56038 2.45409 7.35163
267 3 1.29208 0.117868 7.37815
309 3 2.66546 1.01798 9.44322
241 3 3.97386 0.142694 7.37819
7 1 0.134367 1.74953 12.304
83 2 3.27453 2.05801 12.7086
37 1 3.03977 1.80299 11.6647
69 2 0.189723 2.99683 13.2444
43 1 1.01472 2.76764 13.6571
9 1 3.25183 3.09109 12.6682
157 3 1.14893 4.83141 3.05192
133 3 2.48905 5.57669 0.900183
129 3 1.24734 3.1694 0.96967
101 3 3.88894 3.26562 0.980181
177 3 3.98377 4.79664 3.04495
225 3 1.22513 3.31489 5.30687
229 3 2.65501 5.63689 5.17855
197 3 3.90809 3.22357 5.2616
293 3 3.953 3.21381 9.42232
273 3 3.88064 4.86298 7.37629
255 3 1.22725 4.85531 7.38868
325 3 2.45729 5.53859 9.44287
321 3 1.26422 3.25565 9.54191
49 1 3.79487 5.43741 11.6578
53 1 0.414906 3.4439 12.3284
161 3 2.60316 7.13398 3.03514
98 3 1.35615 7.95195 0.948477
137 3 3.86276 7.88555 0.991547
233 3 3.90771 7.91756 5.12977
194 3 1.24699 7.91914 5.22084
257 3 2.57151 7.07592 7.31323
289 3 1.31217 7.84423 9.50157
329 3 3.94675 7.92099 9.44253
50 1 1.43714 6.62821 11.7681
61 1 2.82826 9.28102 13.0905
4 1 1.16189 7.58019 12.9551
73 2 1.00793 6.62811 12.7936
118 3 2.695 10.2395 0.878462
174 3 2.67271 11.744 3.04343
170 3 1.35585 9.4666 3.09332
146 3 3.98675 9.58799 3.03811
128 3 0.021492 10.2113 1.0018
214 3 2.63907 10.2757 5.23173
270 3 2.68987 11.7249 7.32714
322 3 1.33292 12.4114 9.62123
310 3 2.63734 10.1479 9.4777
268 3 1.24225 9.5018 7.36737
60 1 0.945011 11.8148 12.4212
88 2 1.89792 9.47703 12.8465
56 1 0.760689 10.2291 13.2714
34 1 3.1071 12.3472 11.782
48 1 2.01588 9.55458 11.7907
158 3 1.36616 14.2214 3.04094
134 3 2.75598 14.9165 0.90685
130 3 1.37061 12.676 1.05123
116 3 0.0674675 15.0035 1.04187
178 3 4.02595 14.1735 2.97984
198 3 3.96782 12.5354 5.16743
230 3 2.64161 14.9362 5.22592
226 3 1.32967 12.5698 5.27414
256 3 1.29927 14.0127 7.36799
294 3 3.99267 12.5246 9.37298
326 3 2.58331 14.8185 9.4188
274 3 3.94585 14.0594 7.37404
81 2 0.0856111 14.9318 11.6692
2 1 1.22518 13.4113 12.2285
92 2 1.38058 12.4937 11.9047
162 3 2.67973 16.4896 3.01319
97 3 1.29262 17.2487 0.953111
138 3 3.99649 17.3799 0.941222
191 3 0.00258516 16.5626 3.03834
193 3 1.29684 17.2665 5.21471
258 3 2.59527 16.3989 7.32927
330 3 3.9772 17.1887 9.42099
290 3 1.26375 17.1235 9.40339
1 1 0.633757 15.9671 11.619
32 1 2.90429 17.2956 11.7337
13 1 1.04032 18.0773 11.8467
95 2 1.61483 17.1312 11.5872
141 3 5.21186 1.03 0.925401
165 3 5.27281 2.44132 3.09067
186 3 6.674 0.139684 3.14658
189 3 7.98678 2.59394 2.96378
114 3 7.88819 0.94932 0.874308
237 3 5.34971 0.988071 5.28621
261 3 5.36216 2.5479 7.35131
210 3 8.0143 0.945147 5.19451
282 3 6.62986 0.0898811 7.40877
333 3 5.35057 0.906602 9.45193
306 3 7.97066 0.918175 9.43041
286 3 8.08159 2.55255 7.41406
47 1 4.86668 1.42268 12.1618
57 1 6.61028 0.951945 11.8563
71 2 5.53065 0.879192 11.7107
86 2 7.99472 0.874898 11.9398
149 3 6.61276 4.8515 3.03831
105 3 5.31048 5.59741 0.899441
121 3 6.55074 3.2489 0.998684
125 3 7.91726 5.58454 0.866335
201 3 5.37036 5.59257 5.08089
217 3 6.63808 3.23992 5.19175
245 3 6.65237 4.76666 7.349
221 3 7.95802 5.62552 5.18995
317 3 7.96776 5.56533 9.45709
297 3 5.32088 5.68659 9.32155
313 3 6.70405 3.30328 9.43496
25 1 7.99374 5.54369 11.659
14 1 5.15967 5.65266 13.979
20 1 4.98739 4.38177 12.1084
72 2 4.28078 4.74705 12.6139
109 3 6.64444 7.88874 0.880085
181 3 5.34673 7.10451 2.97447
153 3 8.03406 7.18167 2.97269
205 3 6.75959 7.88779 5.1763
277 3 5.38418 7.18541 7.23618
301 3 6.62165 7.85424 9.39416
39 1 4.23022 7.9521 11.7794
67 2 4.22604 8.2892 12.6627
64 1 4.89651 7.60976 13.2214
96 2 5.74016 6.41607 14.153
62 1 6.60662 6.54337 13.5474
142 3 5.29679 10.2153 0.93216
166 3 5.30688 11.8006 3.08567
185 3 6.68578 9.42025 3.06303
113 3 7.92195 10.2167 1.02734
190 3 8.03288 11.7532 3.08055
209 3 7.97959 10.3608 5.16706
238 3 5.31277 10.1513 5.22452
281 3 6.65185 9.45587 7.35021
285 3 8.01749 11.7719 7.3324
242 3 4.04481 9.48719 7.34612
262 3 5.25613 11.7243 7.37305
334 3 5.41341 10.0328 9.51339
305 3 8.02451 10.3548 9.56319
28 1 4.64914 11.5051 12.1714
16 1 6.20749 10.383 11.9245
3 1 5.27318 9.81845 12.9516
77 2 5.79385 10.6098 12.8098
58 1 7.91614 11.6235 12.8465
74 2 4.06677 12.3278 11.8918
150 3 6.72321 14.2108 3.10536
106 3 5.27802 14.9648 0.89239
122 3 6.65485 12.7033 1.09265
102 3 4.06705 12.6256 0.927532
222 3 8.00085 14.8797 5.24423
202 3 5.30697 14.9434 5.25608
218 3 6.61172 12.5377 5.2244
246 3 6.6043 14.0914 7.39801
298 3 5.30604 14.7458 9.49046
314 3 6.64352 12.5054 9.36706
76 2 5.39919 14.6443 11.8446
6 1 7.01385 14.7855 12.0745
33 1 4.80729 13.7788 12.3074
78 2 7.94723 14.7637 11.7035
51 1 4.86689 15.5404 11.8917
110 3 6.69484 17.3305 0.996323
182 3 5.31471 16.5812 3.05537
206 3 6.73629 17.3304 5.23482
234 3 4.05889 17.2871 5.20872
302 3 6.68066 17.2878 9.43896
278 3 5.36026 16.4229 7.39005
68 2 4.11258 17.014 11.6556
15 1 4.76551 17.6253 12.0867
135 3 10.8234 0.811018 0.884879
163 3 10.7187 2.50887 3.05419
159 3 9.32271 0.17444 3.06932
179 3 12.0436 0.21077 3.0701
139 3 12.0966 3.1055 0.852812
231 3 10.6873 0.976571 5.16237
254 3 9.35859 0.154615 7.34962
275 3 11.9857 0.163411 7.40605
259 3 10.6387 2.51575 7.37391
327 3 10.5824 0.908492 9.41735
5 1 8.67558 1.63451 11.8898
40 1 10.4582 3.06723 12.2112
29 1 8.47993 0.0800414 12.1225
172 3 9.36473 4.87111 2.94691
120 3 10.7967 5.62834 0.980435
100 3 9.32517 3.3705 0.985628
148 3 11.9707 4.78683 3.04803
196 3 9.29812 3.26817 5.15013
216 3 10.6754 5.64888 5.17587
244 3 12.0288 4.87794 7.29235
235 3 12.0667 3.31826 5.27062
331 3 12.0629 3.45909 9.34867
265 3 9.35011 4.85333 7.37256
312 3 10.729 5.59907 9.34789
291 3 9.41644 3.2 9.50233
44 1 8.86267 6.18519 12.8252
85 2 8.23905 5.46509 12.8127
70 2 9.53263 3.18577 11.841
10 1 9.12284 4.02474 12.101
176 3 10.8299 7.15943 2.97931
132 3 9.3971 8.09508 1.01915
104 3 11.9755 8.00497 0.848493
200 3 12.0543 8.01985 5.05159
228 3 9.39832 7.91376 5.19413
272 3 10.7214 7.20464 7.22521
249 3 8.10888 7.13576 7.32276
324 3 9.30091 7.83525 9.42799
296 3 11.9653 7.9139 9.40479
35 1 8.15231 8.71336 10.4556
11 1 10.9418 7.03227 11.5452
89 2 10.8995 6.69288 12.6383
8 1 11.9055 6.40399 12.7004
136 3 10.6702 10.3716 1.01091
164 3 10.7492 11.8152 3.10564
160 3 9.30124 9.57227 3.09259
232 3 10.7076 10.2888 5.18683
253 3 9.36029 9.4507 7.29025
260 3 10.7566 11.7893 7.40967
276 3 11.979 9.49331 7.36451
328 3 10.6307 10.222 9.42997
38 1 8.78477 11.8769 11.7224
66 2 8.64204 12.1293 12.5935
55 1 11.0426 10.4327 13.5255
93 2 11.0904 11.3948 13.9143
26 1 10.2445 12.0032 13.7797
171 3 9.34616 14.1125 3.14731
119 3 10.7486 14.8892 0.98867
99 3 9.37228 12.6594 0.974563
140 3 12.0205 12.6222 0.997091
147 3 12.0822 14.0499 3.1106
126 3 8.09884 14.899 1.13122
243 3 11.9854 14.1948 7.33298
215 3 10.72 14.9155 5.23163
195 3 9.44531 12.6012 5.25402
266 3 9.46261 14.1078 7.31189
332 3 11.995 12.5394 9.51481
292 3 9.24156 12.5893 9.44125
42 1 11.0818 13.4905 10.696
311 3 10.6768 14.8546 9.50325
318 3 8.12756 14.825 9.38794
19 1 8.51458 14.0145 12.0031
175 3 10.7794 16.5414 3.09586
131 3 9.31012 17.1917 0.978602
103 3 11.914 17.2132 0.936852
154 3 8.09457 16.5318 3.14418
227 3 9.4186 17.3055 5.17144
271 3 10.7506 16.481 7.30994
199 3 12.0816 17.2645 5.22115
250 3 8.14276 16.5128 7.38323
323 3 9.4334 17.2522 9.52689
295 3 12.1088 17.1965 9.44233
41 1 11.1245 17.3497 11.9934
79 2 9.19362 17.2851 11.5952
63 1 8.72305 16.2785 12.1818
80 2 12.0836 17.317 11.6817
107 3 13.3342 0.964001 0.969453
183 3 13.3963 2.60815 3.1524
151 3 14.7155 0.136532 3.04224
155 3 16.0828 2.52939 3.08301
127 3 16.0307 0.848081 0.984222
203 3 13.4092 0.889223 5.33991
223 3 16.0873 0.84509 5.26539
279 3 13.3442 2.49754 7.42298
247 3 14.7651 0.173447 7.50223
299 3 13.3263 0.980118 9.5469
319 3 16.0687 0.967831 9.52923
251 3 16.0808 2.50874 7.42723
91 2 13.361 0.71411 11.6006
21 1 13.0337 1.4328 11.8662
17 1 15.1608 0.441753 11.8634
82 2 16.1307 0.805495 11.7534
187 3 14.6659 4.86243 3.04475
144 3 13.2411 5.51481 1.04561
111 3 14.7943 3.21906 0.971645
115 3 16.1036 5.64197 0.949093
240 3 13.3578 5.5809 5.19433
211 3 16.0751 5.58583 5.15335
207 3 14.7872 3.33141 5.24402
307 3 16.0036 5.64628 9.43747
283 3 14.6594 4.7989 7.35758
303 3 14.6905 3.24559 9.44551
336 3 13.3077 5.59614 9.41557
22 1 15.9259 3.95372 10.3196
52 1 12.8484 4.1306 13.0647
54 1 12.5936 3.74294 11.6905
87 2 12.4678 3.42171 12.6136
124 3 14.8107 7.90887 0.884407
168 3 13.329 7.20729 2.87386
192 3 16.0581 7.14006 3.07803
220 3 14.6233 7.91583 5.16239
264 3 13.3101 7.17831 7.27003
287 3 15.9547 7.06815 7.32009
316 3 14.7669 7.9642 9.4573
23 1 13.9131 6.68005 11.7336
45 1 13.8199 8.40429 12.8184
84 2 14.1605 6.74137 12.8174
46 1 15.0419 6.66305 12.8812
108 3 13.4943 10.2466 0.82168
184 3 13.5427 11.9377 2.94069
152 3 14.766 9.50127 3.0297
156 3 16.1328 11.8471 3.08134
180 3 12.1735 9.54382 2.90859
204 3 13.3953 10.2456 5.14452
248 3 14.7002 9.41198 7.26083
224 3 16.1052 10.2947 5.15822
252 3 16.1459 11.701 7.30389
280 3 13.4127 11.8093 7.42678
300 3 13.3269 10.243 9.48415
320 3 16.1448 10.0798 9.38308
27 1 13.3441 9.55518 12.008
30 1 13.1558 12.014 11.2609
59 1 15.0974 10.3966 13.1714
65 2 13.5051 9.41314 12.9084
75 2 15.986 10.9377 13.3737
18 1 12.6834 12.3545 13.1055
188 3 14.8157 14.1937 2.9998
143 3 13.4293 14.9983 0.954916
112 3 14.8812 12.4486 0.837843
239 3 13.4532 14.9091 5.2176
208 3 14.8675 12.5912 5.20883
236 3 12.1466 12.591 5.27642
212 3 16.1635 14.9448 5.1872
304 3 14.7724 12.4995 9.44324
284 3 14.7699 14.0772 7.36717
308 3 16.1014 14.7429 9.48322
335 3 13.4584 14.8957 9.44594
94 2 13.4068 12.7499 12.3558
12 1 15.2867 15.1253 11.7805
31 1 13.1835 14.081 12.0793
90 2 13.5618 15.0553 11.7885
123 3 14.6357 17.3379 1.0181
167 3 13.3702 16.5135 2.99523
219 3 14.7534 17.2962 5.21715
263 3 13.4041 16.6046 7.29386
288 3 16.1163 16.4911 7.32505
315 3 14.7116 17.1888 9.45476
24 1 13.0366 15.9657 11.916
36 1 12.5958 18.34 11.6565
