ITEM: TIMESTEP
400000000
ITEM: NUMBER OF ATOMS
336
ITEM: BOX BOUNDS pp pp pp
0.0000000000000000e+00 1.6167135238600000e+01
0.0000000000000000e+00 1.8668199539200000e+01
0.0000000000000000e+00 2.5747400283800001e+01
ITEM: ATOMS id type x y z
117 3 2.62952 1.02036 0.941702
173 3 2.62419 2.49706 3.08359
169 3 1.2542 0.16017 3.08215
145 3 3.99856 0.17299 3.08908
213 3 2.52771 0.902493 5.27007
269 3 2.58863 2.44849 7.3634
267 3 1.307 0.110318 7.38201
309 3 2.66974 1.04221 9.42866
241 3 4.01127 0.149202 7.37591
7 1 0.122536 1.59166 12.2598
83 2 3.26626 2.06523 12.6797
37 1 3.05569 1.79667 11.6646
69 2 0.150859 2.96652 13.1898
43 1 0.999169 2.87877 13.7581
157 3 1.14693 4.83464 3.04463
133 3 2.51801 5.58539 0.919066
129 3 1.24115 3.16121 0.978758
101 3 3.89191 3.27122 0.994224
177 3 3.95583 4.80912 3.0676
229 3 2.6481 5.64544 5.15015
225 3 1.21907 3.32402 5.31909
197 3 3.90502 3.23993 5.26851
273 3 3.88751 4.85116 7.37479
293 3 3.95537 3.20856 9.42929
255 3 1.23343 4.83186 7.38271
321 3 1.27052 3.26202 9.54482
325 3 2.48403 5.53503 9.45737
53 1 0.433264 3.59289 12.45
49 1 3.94305 5.41513 11.8151
9 1 2.97667 3.20728 12.6919
161 3 2.60206 7.09767 3.04786
98 3 1.33901 7.94983 0.948943
137 3 3.86264 7.91034 1.00289
233 3 3.90651 7.90614 5.12199
194 3 1.252 7.92193 5.22423
257 3 2.57359 7.08374 7.30857
289 3 1.32942 7.8426 9.52568
329 3 3.92162 7.93615 9.42071
73 2 0.944396 6.59076 12.7498
50 1 1.28542 6.71855 11.7502
4 1 1.08885 7.6044 13.0031
61 1 2.65883 9.20744 12.8846
118 3 2.69304 10.24 0.878713
174 3 2.68869 11.7342 3.054
170 3 1.34479 9.46296 3.09334
146 3 3.99657 9.59634 3.04421
128 3 0.0160889 10.2006 0.996823
214 3 2.65878 10.2563 5.25014
270 3 2.69836 11.7246 7.33433
242 3 4.03173 9.47043 7.34399
268 3 1.24895 9.51893 7.37475
310 3 2.63387 10.1363 9.46352
322 3 1.32741 12.4009 9.62502
56 1 0.682074 10.4495 13.2986
60 1 0.763003 11.9159 12.4073
88 2 1.89365 9.47509 12.8598
48 1 1.92315 9.6778 11.8755
34 1 2.96136 12.3316 11.8473
74 2 3.93042 12.2591 11.9369
158 3 1.37107 14.2177 3.04286
134 3 2.75873 14.9201 0.898358
130 3 1.36307 12.6737 1.07389
116 3 0.0674483 14.9881 1.0057
178 3 4.02573 14.1765 2.98314
230 3 2.62303 14.9251 5.228
226 3 1.33014 12.5818 5.26841
198 3 3.98768 12.5271 5.16238
274 3 3.96667 14.0604 7.37441
256 3 1.29361 13.9897 7.3881
326 3 2.5904 14.8546 9.42636
294 3 4.00543 12.4942 9.4
81 2 0.0449829 14.9164 11.6419
2 1 1.11367 13.2037 12.3088
92 2 1.38945 12.4543 11.9269
162 3 2.66619 16.4725 3.0278
97 3 1.29235 17.2644 0.932001
138 3 3.9851 17.3829 0.915297
193 3 1.31628 17.2574 5.21851
258 3 2.58241 16.3927 7.32058
290 3 1.25764 17.1271 9.39869
330 3 3.95167 17.1848 9.44558
1 1 0.528941 15.7977 11.4626
13 1 1.10197 17.9594 11.8704
95 2 1.64044 17.1786 11.6426
32 1 2.73912 17.151 11.8695
141 3 5.19883 1.03734 0.932481
165 3 5.26785 2.44716 3.11172
186 3 6.66159 0.150332 3.14054
189 3 7.98351 2.57834 2.95751
114 3 7.9043 0.958547 0.872604
210 3 8.03976 0.949877 5.18194
237 3 5.36705 1.0033 5.2778
306 3 7.98181 0.93648 9.42491
261 3 5.36041 2.5424 7.37304
282 3 6.63293 0.0978024 7.41942
333 3 5.33156 0.886369 9.45695
86 2 7.93454 0.901585 11.9922
57 1 6.60606 1.11287 12.0563
71 2 5.58585 0.891035 11.7684
47 1 4.89197 1.26797 12.2893
149 3 6.6122 4.86019 3.05257
105 3 5.34281 5.60271 0.875911
121 3 6.52503 3.23376 0.987183
125 3 7.90887 5.59571 0.85618
221 3 7.98194 5.61409 5.17716
201 3 5.35478 5.60518 5.11317
217 3 6.67543 3.24281 5.17157
245 3 6.65705 4.78355 7.33512
317 3 7.94458 5.56636 9.45315
297 3 5.28814 5.6838 9.32382
313 3 6.71463 3.29727 9.44887
14 1 5.23552 5.7242 13.6875
20 1 4.9129 4.0905 12.3003
72 2 4.23918 4.76132 12.5363
25 1 7.94335 5.43026 11.7316
109 3 6.64606 7.88557 0.851969
181 3 5.33215 7.10104 2.97515
153 3 8.049 7.17729 2.96579
205 3 6.75332 7.91083 5.18344
277 3 5.36266 7.1644 7.21871
301 3 6.62122 7.84735 9.39288
35 1 7.92337 8.88494 10.363
39 1 4.33468 8.32531 11.7465
67 2 4.24635 8.28848 12.7257
96 2 5.79184 6.43364 14.1365
64 1 4.83032 7.60765 13.1513
62 1 6.76192 6.60451 13.56
142 3 5.30497 10.2172 0.914061
166 3 5.28617 11.809 3.10161
185 3 6.66951 9.42686 3.0468
190 3 8.02152 11.7714 3.08813
113 3 7.90382 10.224 1.01791
209 3 7.97292 10.3701 5.1609
238 3 5.33264 10.153 5.1947
281 3 6.64785 9.44129 7.33794
262 3 5.28174 11.722 7.35493
285 3 7.99197 11.7754 7.32716
334 3 5.41154 10.0547 9.50731
305 3 8.01208 10.3817 9.56834
3 1 5.25701 9.71275 13.1419
77 2 5.77731 10.6244 12.7755
16 1 6.17436 10.1914 11.9232
28 1 4.56448 11.5438 12.3131
58 1 7.87394 11.6579 12.9461
150 3 6.73879 14.2119 3.11457
106 3 5.28184 14.9744 0.897874
122 3 6.66927 12.7072 1.08692
102 3 4.09173 12.6052 0.929954
202 3 5.32372 14.9347 5.25035
218 3 6.60363 12.5514 5.24477
222 3 7.98328 14.8836 5.25502
246 3 6.60899 14.0786 7.38541
298 3 5.28674 14.7473 9.46059
314 3 6.65461 12.4534 9.36041
6 1 6.83534 14.7719 11.9235
78 2 7.95051 14.7957 11.7223
33 1 5.00866 13.6487 12.0942
76 2 5.37472 14.6883 11.8589
51 1 4.65266 15.4709 11.844
110 3 6.68467 17.3158 0.993726
182 3 5.33653 16.5892 3.02806
234 3 4.05832 17.2966 5.21317
206 3 6.74229 17.3465 5.23221
278 3 5.35433 16.4006 7.39759
302 3 6.72425 17.2928 9.4531
68 2 4.07808 17.0192 11.6511
15 1 4.52569 17.8578 12.0319
135 3 10.8295 0.839596 0.913222
163 3 10.7222 2.51023 3.05625
159 3 9.30443 0.175947 3.05549
179 3 12.05 0.186552 3.07839
139 3 12.1189 3.10211 0.830093
231 3 10.6924 0.980194 5.17869
254 3 9.36696 0.152897 7.32894
259 3 10.612 2.50056 7.39569
327 3 10.5672 0.920088 9.42384
275 3 11.9685 0.182348 7.38074
286 3 8.09044 2.54856 7.42019
5 1 8.70034 1.60989 11.703
70 2 9.51854 3.10475 11.8292
40 1 10.3472 2.98581 12.2956
172 3 9.34817 4.86499 2.9835
120 3 10.817 5.62514 0.981497
100 3 9.34658 3.35576 0.998827
148 3 11.9937 4.79723 3.05323
244 3 12.0356 4.87385 7.29479
235 3 12.0692 3.31276 5.26313
196 3 9.29201 3.28183 5.1315
216 3 10.6801 5.63737 5.17616
265 3 9.35387 4.84255 7.35473
331 3 12.0734 3.44175 9.33409
291 3 9.39711 3.1995 9.48542
312 3 10.751 5.618 9.34713
85 2 8.33419 5.47842 12.8144
10 1 9.06817 4.05648 12.0841
176 3 10.8051 7.163 2.97375
132 3 9.39107 8.08604 0.989699
104 3 11.9712 8.01005 0.856312
200 3 12.039 8.02254 5.02896
228 3 9.39348 7.9275 5.20631
272 3 10.7205 7.22128 7.20959
249 3 8.10951 7.12845 7.31911
296 3 11.9602 7.92228 9.39197
324 3 9.31605 7.82362 9.43427
89 2 10.8719 6.63905 12.5812
11 1 10.9112 6.78858 11.5515
8 1 12.0522 6.33126 12.667
44 1 9.10705 6.34676 12.6841
136 3 10.6801 10.3629 1.0223
164 3 10.7394 11.8236 3.10465
160 3 9.28177 9.56556 3.08208
232 3 10.7054 10.2976 5.1902
276 3 12.0054 9.51362 7.35401
253 3 9.36739 9.45027 7.28483
260 3 10.761 11.7983 7.41408
328 3 10.6238 10.219 9.41651
38 1 8.58667 11.7014 11.6444
55 1 11.2105 10.3767 13.7465
93 2 11.0632 11.3554 13.9039
26 1 10.2283 11.6923 13.6407
66 2 8.65601 12.1862 12.5896
171 3 9.38354 14.1314 3.13457
119 3 10.7647 14.8878 1.0156
99 3 9.36547 12.6728 0.961479
126 3 8.11461 14.8888 1.12922
140 3 12.053 12.6058 1.01068
147 3 12.0511 14.0317 3.1048
195 3 9.46222 12.6118 5.24499
215 3 10.7158 14.9343 5.25524
266 3 9.43392 14.0984 7.31347
243 3 11.9969 14.1718 7.34621
332 3 12.0058 12.5396 9.50349
311 3 10.6841 14.8451 9.49965
292 3 9.26565 12.5756 9.39898
42 1 10.8866 13.8902 10.769
318 3 8.1283 14.823 9.39383
19 1 8.42137 13.9064 11.9729
175 3 10.7588 16.5377 3.10646
131 3 9.27939 17.2131 0.985612
103 3 11.9155 17.2026 0.953166
154 3 8.0989 16.5428 3.09872
227 3 9.45605 17.3145 5.18865
271 3 10.7407 16.4791 7.28186
199 3 12.0971 17.3 5.1965
295 3 12.0807 17.198 9.41968
250 3 8.13702 16.5135 7.37432
323 3 9.41628 17.229 9.5319
41 1 11.1234 17.3475 12.0271
63 1 8.9015 16.3742 12.2126
79 2 9.18145 17.304 11.6363
80 2 12.0958 17.2479 11.6738
29 1 8.39453 18.6601 12.1158
107 3 13.33 0.957144 0.994356
183 3 13.3903 2.60359 3.16857
151 3 14.7429 0.105047 3.04297
127 3 16.0304 0.83922 0.972884
155 3 16.0606 2.52951 3.08617
203 3 13.4058 0.896173 5.33284
223 3 16.0685 0.871943 5.25092
319 3 16.0928 0.967824 9.52934
279 3 13.3361 2.50319 7.45639
247 3 14.7845 0.152737 7.5178
299 3 13.321 0.985844 9.54511
251 3 16.0885 2.48001 7.42907
91 2 13.3091 0.752174 11.7004
21 1 13.3494 1.64257 12.1621
17 1 15.1766 0.580549 11.8639
82 2 16.1371 0.755987 11.7388
187 3 14.6705 4.85665 3.01558
144 3 13.2437 5.49974 1.0379
111 3 14.7789 3.2055 0.968523
115 3 16.0931 5.65045 0.967126
240 3 13.3525 5.55867 5.14921
211 3 16.0491 5.57631 5.16639
207 3 14.7782 3.31377 5.24847
22 1 16.1303 4.1059 10.5937
283 3 14.6401 4.79291 7.37748
336 3 13.2919 5.57587 9.43275
303 3 14.6875 3.25375 9.45156
307 3 16.0032 5.6507 9.44903
54 1 12.786 3.73598 11.6384
52 1 13.0568 3.98755 13.268
87 2 12.4577 3.42045 12.5991
124 3 14.8294 7.91494 0.881866
168 3 13.3167 7.2249 2.88366
192 3 16.0828 7.10757 3.08581
220 3 14.634 7.90187 5.16854
264 3 13.3483 7.17545 7.28113
287 3 15.952 7.08537 7.29899
316 3 14.7552 7.96498 9.47444
46 1 15.1213 6.61931 12.6002
45 1 13.7955 8.44568 12.9859
23 1 13.9545 6.65085 11.8107
84 2 14.1073 6.7191 12.7274
108 3 13.5056 10.2329 0.847165
184 3 13.5387 11.9046 2.96164
152 3 14.7723 9.49236 3.02236
180 3 12.1924 9.56038 2.92133
156 3 16.1245 11.8366 3.08826
224 3 16.1239 10.295 5.15664
204 3 13.395 10.2186 5.15221
248 3 14.6944 9.40636 7.30178
252 3 16.1575 11.7384 7.3067
280 3 13.4281 11.812 7.42051
300 3 13.3456 10.2347 9.50728
320 3 16.1509 10.0809 9.40634
27 1 13.3373 9.67027 11.9149
30 1 13.2212 12.1294 11.5627
59 1 15.2298 10.1039 13.2438
75 2 15.9443 10.936 13.4471
65 2 13.5266 9.47709 12.9169
18 1 12.8884 12.3645 13.1471
188 3 14.7968 14.1684 3.01433
143 3 13.4317 14.9909 0.98145
112 3 14.8803 12.4601 0.820519
208 3 14.88 12.5894 5.19847
239 3 13.448 14.8932 5.22304
212 3 16.1658 14.9673 5.19946
284 3 14.7931 14.0838 7.34477
236 3 12.1415 12.5768 5.26321
308 3 16.0911 14.7558 9.47555
335 3 13.4714 14.9027 9.44455
304 3 14.7825 12.5121 9.4353
94 2 13.4307 12.7176 12.3109
31 1 13.3258 13.9578 11.9589
12 1 15.2074 15.0527 11.6111
90 2 13.5526 15.0307 11.8165
123 3 14.6607 17.3455 1.00384
167 3 13.3769 16.5031 2.99725
191 3 16.1515 16.5799 3.05002
219 3 14.7623 17.2852 5.20738
288 3 16.1101 16.4557 7.32475
263 3 13.4303 16.6223 7.28986
315 3 14.7021 17.2067 9.46783
36 1 12.5133 18.3391 11.7011
24 1 13.0284 15.8233 11.7012
