ITEM: TIMESTEP
400000000
ITEM: NUMBER OF ATOMS
336
ITEM: BOX BOUNDS pp pp pp
0.0000000000000000e+00 1.6167135238600000e+01
0.0000000000000000e+00 1.8668199539200000e+01
0.0000000000000000e+00 2.5747400283800001e+01
ITEM: ATOMS id type x y z
117 3 2.6169 1.00165 0.928755
173 3 2.62751 2.48576 3.07302
169 3 1.2454 0.164432 3.07717
145 3 3.99081 0.182052 3.09217
213 3 2.51952 0.899942 5.28007
269 3 2.5744 2.44998 7.36008
267 3 1.30809 0.114727 7.38297
309 3 2.66736 1.02884 9.42512
241 3 3.98881 0.135929 7.37733
37 1 2.95355 1.79966 11.6278
83 2 3.28388 2.08365 12.7018
7 1 0.147647 1.73272 12.1624
9 1 3.04428 3.01006 12.6658
69 2 0.178724 2.95901 13.2005
43 1 1.0288 2.86703 13.7615
157 3 1.15729 4.824 3.03697
133 3 2.52391 5.57983 0.90659
129 3 1.22939 3.16372 0.973316
177 3 3.95482 4.82006 3.05494
101 3 3.88788 3.27919 0.984566
229 3 2.65098 5.63449 5.15786
225 3 1.21368 3.31012 5.31856
197 3 3.91639 3.23232 5.26251
293 3 3.95972 3.20102 9.42924
273 3 3.87816 4.85693 7.37346
255 3 1.24342 4.83934 7.38271
325 3 2.48991 5.51802 9.46029
321 3 1.28174 3.26596 9.5244
53 1 0.342401 3.64511 12.4087
49 1 3.89762 5.48816 11.8692
161 3 2.60178 7.11257 3.05023
98 3 1.34026 7.9481 0.939542
137 3 3.8663 7.89491 0.995354
194 3 1.24245 7.92306 5.22829
233 3 3.90995 7.90593 5.12325
257 3 2.57375 7.07172 7.31792
329 3 3.92552 7.9387 9.44625
289 3 1.31687 7.83774 9.51425
4 1 1.16932 7.56837 13.0391
73 2 1.0064 6.60032 12.7756
50 1 1.30982 6.73276 11.7629
61 1 2.81398 9.03724 13.0029
118 3 2.68716 10.2496 0.893071
174 3 2.69063 11.7323 3.05356
170 3 1.3501 9.46389 3.10353
146 3 3.98483 9.59998 3.05484
128 3 0.045469 10.1944 1.00521
214 3 2.6559 10.2511 5.25384
270 3 2.68936 11.7234 7.31887
242 3 4.02943 9.46397 7.34661
322 3 1.33305 12.4101 9.61046
268 3 1.23631 9.52331 7.37724
310 3 2.63947 10.1309 9.47667
48 1 2.02263 9.64175 11.836
60 1 0.902384 11.8317 12.4107
74 2 3.97941 12.3055 11.8985
88 2 1.89971 9.47126 12.8616
56 1 0.758914 10.3951 13.3773
158 3 1.36069 14.2349 3.04763
134 3 2.76001 14.9111 0.894673
130 3 1.36453 12.6786 1.06361
178 3 4.02081 14.1784 2.98304
116 3 0.0684155 14.9833 1.01284
230 3 2.63179 14.9245 5.23606
226 3 1.32127 12.5696 5.28666
198 3 3.98185 12.5447 5.1687
212 3 0.00508683 14.9598 5.19231
256 3 1.28719 14.0025 7.38211
274 3 3.96491 14.0483 7.37417
326 3 2.59661 14.8353 9.39873
294 3 4.00104 12.51 9.39803
92 2 1.38551 12.4563 11.9332
81 2 0.0249072 14.9428 11.6311
2 1 1.14303 13.2875 12.0816
34 1 3.00506 12.4615 11.6388
162 3 2.66989 16.4658 3.03666
97 3 1.28884 17.2593 0.931137
138 3 3.99172 17.3761 0.928529
193 3 1.3153 17.2643 5.21159
258 3 2.58371 16.3958 7.3089
290 3 1.25181 17.1234 9.39646
330 3 3.9635 17.2032 9.44488
13 1 1.08757 17.8369 11.9573
32 1 2.60128 17.2282 11.9075
95 2 1.63727 17.1588 11.6171
1 1 0.638813 15.7862 11.5922
141 3 5.22252 1.03256 0.926211
165 3 5.27415 2.44423 3.10094
186 3 6.64326 0.158057 3.13757
189 3 7.97673 2.58344 2.95546
114 3 7.89788 0.95375 0.86743
237 3 5.36247 1.00538 5.27227
210 3 8.02892 0.933721 5.16994
261 3 5.37625 2.54414 7.37139
282 3 6.62462 0.100363 7.41693
333 3 5.3323 0.884727 9.45017
306 3 7.98107 0.934154 9.43928
47 1 4.70401 1.40987 12.1303
71 2 5.6001 0.886939 11.7441
57 1 6.53627 1.04177 12.089
86 2 7.96161 0.910121 11.9573
149 3 6.61772 4.85579 3.05002
105 3 5.32289 5.59862 0.87167
121 3 6.54233 3.23328 0.992773
125 3 7.91206 5.59073 0.868999
221 3 7.97492 5.63803 5.16665
201 3 5.35552 5.60524 5.10965
217 3 6.66133 3.24329 5.16975
245 3 6.6772 4.78544 7.33657
317 3 7.93944 5.57866 9.45632
313 3 6.72539 3.29424 9.45288
297 3 5.30293 5.68362 9.31324
20 1 4.84718 4.11459 12.3803
14 1 5.26414 5.73599 13.5798
72 2 4.23261 4.74466 12.5395
25 1 7.98443 5.33907 11.6582
109 3 6.65212 7.87834 0.858294
181 3 5.34019 7.10601 2.97007
153 3 8.03519 7.18749 2.96637
205 3 6.75172 7.89586 5.17071
277 3 5.36206 7.17019 7.22195
301 3 6.62555 7.83374 9.39584
35 1 7.99792 8.92815 10.3061
96 2 5.79781 6.41596 14.1215
67 2 4.25186 8.26722 12.6879
64 1 4.90028 7.61035 13.0841
39 1 4.25209 8.21454 11.6911
62 1 6.67812 6.61424 13.5373
142 3 5.29755 10.2207 0.917968
166 3 5.29886 11.8097 3.08919
185 3 6.6563 9.42989 3.0526
190 3 8.01739 11.7591 3.08977
113 3 7.92364 10.2317 1.01264
238 3 5.32685 10.1512 5.20212
281 3 6.66113 9.44262 7.34102
285 3 7.99615 11.7772 7.33039
209 3 7.97505 10.3593 5.16078
262 3 5.25744 11.7181 7.35935
334 3 5.41023 10.0396 9.50312
305 3 8.02223 10.3786 9.55887
77 2 5.78361 10.6546 12.7561
16 1 6.11928 10.1398 11.892
28 1 4.52785 11.4853 12.2428
3 1 5.26694 9.77506 13.1806
58 1 7.97361 11.583 12.7023
150 3 6.73684 14.2017 3.11364
106 3 5.28354 14.9657 0.909433
122 3 6.66903 12.705 1.07577
102 3 4.06218 12.6075 0.939027
202 3 5.33504 14.9397 5.24559
218 3 6.60431 12.5531 5.23862
222 3 7.98586 14.8799 5.27123
246 3 6.60689 14.0849 7.3876
298 3 5.29196 14.7593 9.46787
314 3 6.64496 12.4633 9.35965
78 2 7.94304 14.7586 11.6848
76 2 5.40047 14.6951 11.8723
33 1 4.9953 13.7555 12.068
6 1 6.88536 14.8404 12.1153
51 1 4.71173 15.5357 11.8034
110 3 6.69748 17.2985 0.994317
182 3 5.33573 16.5869 3.02606
234 3 4.0665 17.2969 5.21586
206 3 6.75065 17.344 5.22937
278 3 5.35543 16.4099 7.38914
302 3 6.70467 17.2963 9.443
68 2 4.08287 16.9842 11.6252
15 1 4.49726 17.814 12.0328
135 3 10.8432 0.823602 0.893326
163 3 10.7157 2.51733 3.07155
159 3 9.31116 0.173437 3.05823
179 3 12.045 0.187257 3.07784
231 3 10.6923 0.981154 5.17353
254 3 9.36767 0.152595 7.3381
259 3 10.6147 2.51351 7.40605
327 3 10.5732 0.918536 9.4153
275 3 11.9731 0.165245 7.38378
286 3 8.08481 2.54638 7.4148
5 1 8.72781 1.54635 11.7223
40 1 10.4263 2.969 12.2721
70 2 9.51671 3.0892 11.816
172 3 9.35656 4.8654 2.94822
120 3 10.815 5.62768 0.977987
100 3 9.33191 3.3367 0.997225
139 3 12.1162 3.11951 0.849408
148 3 11.9841 4.79682 3.0528
235 3 12.0819 3.2943 5.2629
244 3 12.0415 4.86602 7.29795
196 3 9.30701 3.28114 5.12724
216 3 10.6777 5.64127 5.17731
265 3 9.36712 4.83893 7.35534
291 3 9.41461 3.20199 9.46788
312 3 10.7462 5.60525 9.33742
331 3 12.0585 3.45546 9.33871
85 2 8.3067 5.50707 12.8154
10 1 8.92184 3.94049 12.228
176 3 10.8212 7.17333 2.96746
132 3 9.39325 8.08816 1.0024
104 3 11.9751 8.01313 0.860628
228 3 9.38255 7.92768 5.20388
272 3 10.7148 7.21394 7.2146
200 3 12.0614 8.02787 5.01677
249 3 8.11362 7.13138 7.31439
296 3 11.9629 7.92565 9.40097
324 3 9.31897 7.81349 9.41768
89 2 10.9029 6.62159 12.5876
11 1 10.9025 6.86796 11.5921
8 1 11.989 6.23049 12.6983
44 1 8.99388 6.33746 12.7953
136 3 10.6789 10.3704 1.0347
164 3 10.7433 11.8323 3.10298
160 3 9.29283 9.57163 3.08759
232 3 10.7099 10.293 5.18212
253 3 9.36303 9.44761 7.28
276 3 11.9899 9.49339 7.36594
260 3 10.7735 11.7903 7.41482
328 3 10.6285 10.2327 9.4233
38 1 8.5798 11.7757 11.6456
93 2 11.0609 11.3605 13.9175
55 1 11.1269 10.3452 13.6536
26 1 10.2519 11.7198 13.7171
66 2 8.65394 12.1633 12.5825
171 3 9.36038 14.1294 3.14673
119 3 10.759 14.8869 0.991065
99 3 9.37509 12.6581 0.957928
140 3 12.0463 12.6083 1.00494
126 3 8.12141 14.8993 1.14651
147 3 12.0587 14.0325 3.10427
215 3 10.73 14.932 5.24899
195 3 9.44276 12.6144 5.24695
266 3 9.43531 14.1093 7.31428
243 3 11.9995 14.1859 7.34289
292 3 9.2567 12.5798 9.41284
332 3 11.9975 12.5432 9.51877
311 3 10.6947 14.8494 9.49159
42 1 10.8263 13.6994 10.7158
318 3 8.13629 14.8188 9.39115
19 1 8.42721 13.9572 11.7803
175 3 10.7623 16.5314 3.10227
131 3 9.28197 17.2084 0.980962
103 3 11.9139 17.1909 0.953425
154 3 8.1084 16.5284 3.12564
227 3 9.45947 17.3204 5.18532
271 3 10.7351 16.4785 7.29415
199 3 12.0868 17.2907 5.1982
250 3 8.14276 16.5226 7.38169
323 3 9.4107 17.2328 9.52969
295 3 12.0798 17.1814 9.42619
41 1 11.0531 17.3678 11.9491
63 1 8.94721 16.3192 12.0056
79 2 9.17229 17.3143 11.6055
80 2 12.0654 17.2853 11.7276
29 1 8.54562 18.6663 12.0174
107 3 13.3354 0.958099 0.995154
183 3 13.3822 2.60642 3.14678
151 3 14.7267 0.114667 3.05313
127 3 16.0322 0.83264 0.956643
155 3 16.0645 2.53471 3.0864
203 3 13.4214 0.90681 5.33265
223 3 16.0591 0.858753 5.24697
319 3 16.0873 0.964122 9.53358
247 3 14.7747 0.156598 7.51583
279 3 13.3351 2.49594 7.45065
299 3 13.3395 0.982513 9.55236
251 3 16.1016 2.48836 7.4211
21 1 13.3233 1.43965 12.247
17 1 15.1675 0.546714 11.8027
91 2 13.3054 0.734032 11.7227
82 2 16.1117 0.784917 11.7767
187 3 14.675 4.87092 3.03934
144 3 13.2527 5.49834 1.04407
111 3 14.785 3.2085 0.97353
115 3 16.1003 5.66093 0.957187
240 3 13.3533 5.55508 5.15791
207 3 14.7797 3.34677 5.2438
211 3 16.0515 5.57971 5.15654
307 3 16.017 5.65552 9.46043
283 3 14.6384 4.78615 7.37326
303 3 14.695 3.25303 9.45408
336 3 13.2952 5.57463 9.42082
22 1 16.0917 4.17604 10.4146
52 1 13.1194 4.11168 13.3594
87 2 12.4721 3.39741 12.6049
54 1 12.7213 3.66136 11.7026
124 3 14.8098 7.92395 0.889673
168 3 13.3136 7.23357 2.88866
192 3 16.0779 7.12234 3.08266
220 3 14.6405 7.90657 5.16523
264 3 13.3276 7.18175 7.27485
287 3 15.9362 7.07135 7.3084
316 3 14.7474 7.96332 9.46644
46 1 14.9292 6.53767 12.6585
45 1 13.5959 8.47324 12.9474
84 2 14.1 6.72716 12.7382
23 1 13.8253 6.72046 11.763
108 3 13.4989 10.2469 0.83634
184 3 13.528 11.9098 2.95293
152 3 14.7708 9.48907 3.03254
156 3 16.131 11.8231 3.0915
180 3 12.1894 9.56236 2.92071
204 3 13.3831 10.2154 5.1475
248 3 14.6893 9.4044 7.29378
224 3 16.1222 10.3026 5.16682
252 3 16.1451 11.7257 7.29478
280 3 13.4264 11.7954 7.42684
300 3 13.3294 10.2448 9.51221
320 3 16.1455 10.096 9.39857
65 2 13.5134 9.4493 12.9097
30 1 13.1722 12.1612 11.4368
75 2 15.9521 10.9066 13.4163
59 1 15.3022 10.1617 13.1765
27 1 13.3733 9.63338 11.9618
18 1 12.7562 12.4081 13.1543
188 3 14.7875 14.1625 3.00802
143 3 13.4375 14.991 0.959479
112 3 14.8766 12.4492 0.819322
239 3 13.4616 14.9056 5.22323
208 3 14.8691 12.5911 5.19049
236 3 12.1478 12.5777 5.27211
308 3 16.0904 14.7431 9.47402
284 3 14.7911 14.0834 7.36123
335 3 13.4645 14.9116 9.43577
304 3 14.7683 12.5078 9.43677
94 2 13.4483 12.704 12.3095
12 1 15.1438 14.9587 11.6587
90 2 13.5569 15.0319 11.8118
31 1 13.3489 13.9937 12.0035
123 3 14.6702 17.3317 1.01461
167 3 13.3646 16.4966 2.98658
191 3 16.1589 16.5715 3.06412
219 3 14.7693 17.2966 5.20853
263 3 13.4284 16.5991 7.29405
288 3 16.1061 16.46 7.3234
315 3 14.6882 17.2013 9.45255
36 1 12.445 18.3333 11.6325
24 1 13.0015 15.9086 11.7065
