 #  RPBE+D3.06
 
         336  atoms
           3  atom types
 
      0.000000000000      16.167135238600  xlo xhi
      0.000000000000      18.668199539200  ylo yhi
      0.000000000000      25.747400283800  zlo zhi
 
Masses
 
            1   1.00800000              # H
            2   15.99900000             # O
            3   101.07000000            # Ru
 
Atoms # atomic
 
         1    1        6.376634706779       6.093846337095      12.020871654282
         2    1        6.376634706779      15.427946106695      12.020871654282
         3    1       14.460201841065       1.426796452295      12.020871654282
         4    1       14.460201841065      10.760896221895      12.020871654282
         5    1        7.636248579823       7.121958279502      12.204613213138
         6    1        7.636248579823      16.456058049102      12.204613213138
         7    1       15.719816199123       2.454908394702      12.204613213138
         8    1       15.719816199123      11.789008164302      12.204613213138
         9    1        4.543657666789       9.458170434553      12.220667335153
        10    1        4.543657666789       0.124070664953      12.220667335153
        11    1       12.627224801075       4.791120549753      12.220667335153
        12    1       12.627224801075      14.125220319353      12.220667335153
        13    1        5.801298987662       8.428612509414      12.021336652331
        14    1        5.801298987662      17.762712839060      12.021336652331
        15    1       13.884866606962       3.761562624614      12.021336652331
        16    1       13.884866606962      13.095662954260      12.021336652331
        17    1        4.547847072710       4.785203701245      12.223761220013
        18    1        4.547847072710      14.119304030891      12.223761220013
        19    1       12.631414692010       0.118153816445      12.223761220013
        20    1       12.631414692010       9.452254146091      12.223761220013
        21    1        5.808655874887       3.760230424559      12.022468456553
        22    1        5.808655874887      13.094329914136      12.022468456553
        23    1       13.892223009173      17.761379798936      12.022468456553
        24    1       13.892223009173       8.427280029336      12.022468456553
        25    1        6.380150525178      10.758923385236      12.022352593251
        26    1        6.380150525178       1.424823615636      12.022352593251
        27    1       14.463718144478       6.091873500436      12.022352593251
        28    1       14.463718144478      15.425973270036      12.022352593251
        29    1        7.642374905549      11.784367063215      12.204091416324
        30    1        7.642374905549       2.450267293615      12.204091416324
        31    1       15.725942039835       7.117317178415      12.204091416324
        32    1       15.725942039835      16.451416948015      12.204091416324
        33    1        1.383706271613       3.283003534777      11.710239414334
        34    1        1.383706271613      12.617103584400      11.710239414334
        35    1        9.467274262757      17.284153469200      11.710239414334
        36    1        9.467274262757       7.950053699600      11.710239414334
        37    1        1.775797374752       2.361189459306      12.903101252768
        38    1        1.775797374752      11.695288948883      12.903101252768
        39    1        9.859365365897      16.362338833683      12.903101252768
        40    1        9.859365365897       7.028239064083      12.903101252768
        41    1        1.397232359806       7.945884362583      11.709330891567
        42    1        1.397232359806      17.279984132183      11.709330891567
        43    1        9.480799865936       3.278834477783      11.709330891567
        44    1        9.480799865936      12.612934247383      11.709330891567
        45    1        1.786127802326       7.027802321555      12.905197606100
        46    1        1.786127802326      16.361902651201      12.905197606100
        47    1        9.869695550963       2.360752436755      12.905197606100
        48    1        9.869695550963      11.694852766401      12.905197606100
        49    1        2.726132544141      10.283622026896      11.710415887015
        50    1        2.726132544141       0.949522257296      11.710415887015
        51    1       10.809700648455       5.616572142096      11.710415887015
        52    1       10.809700648455      14.950671911696      11.710415887015
        53    1        2.328038939365       9.361528096446      12.901515933838
        54    1        2.328038939365       0.027428326846      12.901515933838
        55    1       10.411607043679       4.694478211646      12.901515933838
        56    1       10.411607043679      14.028577981246      12.901515933838
        57    1        2.730492755847       5.608387032671      11.712823011468
        58    1        2.730492755847      14.942486802271      11.712823011468
        59    1       10.814060132640       0.941337147871      11.712823011468
        60    1       10.814060132640      10.275436917471      11.712823011468
        61    1        2.329653518827       4.692231661845      12.907499603917
        62    1        2.329653518827      14.026331431445      12.907499603917
        63    1       10.413221138127       0.025181777045      12.907499603917
        64    1       10.413221138127       9.359281546645      12.907499603917
        65    2        6.723341427877       7.008277008970      11.827042727448
        66    2        6.723341427877      16.342376778570      11.827042727448
        67    2       14.806908562163       2.341227124170      11.827042727448
        68    2       14.806908562163      11.675326893770      11.827042727448
        69    2        5.451600182512       9.342245937160      11.831078915664
        70    2        5.451600182512       0.008146167560      11.831078915664
        71    2       13.535167801812       4.675196052360      11.831078915664
        72    2       13.535167801812      14.009295821960      11.831078915664
        73    2        5.455911488633       4.672858233732      11.833018724801
        74    2        5.455911488633      14.006958003332      11.833018724801
        75    2       13.539479107933       0.005808348932      11.833018724801
        76    2       13.539479107933       9.339908118532      11.833018724801
        77    2        6.728966168232      11.672522874195      11.828104730467
        78    2        6.728966168232       2.338423104595      11.828104730467
        79    2       14.812534272546       7.005472989395      11.828104730467
        80    2       14.812534272546      16.339572758995      11.828104730467
        81    2        1.186283934890       3.121882075530      12.680013958653
        82    2        1.186283934890      12.455981845130      12.680013958653
        83    2        9.269851182346      17.123031729930      12.680013958653
        84    2        9.269851182346       7.788931960330      12.680013958653
        85    2        1.195546636351       7.785978837845      12.678272867951
        86    2        1.195546636351      17.120078607445      12.678272867951
        87    2        9.279114627495       3.118928953045      12.678272867951
        88    2        9.279114627495      12.453028722645      12.678272867951
        89    2        2.918509764642      10.122009594001      12.681086672591
        90    2        2.918509764642       0.787909824401      12.681086672591
        91    2       11.002077157602       5.454959709201      12.681086672591
        92    2       11.002077157602      14.789059478801      12.681086672591
        93    2        2.924715341665       5.448401402689      12.683570550044
        94    2        2.924715341665      14.782501172289      12.683570550044
        95    2       11.008282960965       0.781351517889      12.683570550044
        96    2       11.008282960965      10.115451287489      12.683570550044
        97    3        0.000000000000       0.000000000000       0.926648936214
        98    3        0.000000000000       9.334099769600       0.926648936214
        99    3        8.083567619300      14.001149654400       0.926648936214
       100    3        8.083567619300       4.667049884800       0.926648936214
       101    3        2.694495643043       4.667003158297       0.926648936214
       102    3        2.694495643043      14.001102927897       0.926648936214
       103    3       10.778063504850      18.668152812697       0.926648936214
       104    3       10.778063504850       9.334053043097       0.926648936214
       105    3        4.041783809650       7.000574827200       0.926648936214
       106    3        4.041783809650      16.334674596800       0.926648936214
       107    3       12.125351428950       2.333524942400       0.926648936214
       108    3       12.125351428950      11.667624712000       0.926648936214
       109    3        5.389072218764       9.334146496103       0.926648936214
       110    3        5.389072218764       0.000046726503       0.926648936214
       111    3       13.472640323078       4.667096611303       0.926648936214
       112    3       13.472640323078      14.001196380903       0.926648936214
       113    3        6.736279210186      11.667577985497       0.926648936214
       114    3        6.736279210186       2.333478215897       0.926648936214
       115    3       14.819846344472       7.000528100697       0.926648936214
       116    3       14.819846344472      16.334627870297       0.926648936214
       117    3        1.347288166607       2.333571668903       0.926648936214
       118    3        1.347288166607      11.667671438503       0.926648936214
       119    3        9.430855543400      16.334721323303       0.926648936214
       120    3        9.430855543400       7.000621553703       0.926648936214
       121    3        5.389072218764       4.667096611303       0.926648936214
       122    3        5.389072218764      14.001196380903       0.926648936214
       123    3       13.472640323078       0.000046726503       0.926648936214
       124    3       13.472640323078       9.334146496103       0.926648936214
       125    3        6.736279210186       7.000528100697       0.926648936214
       126    3        6.736279210186      16.334627870297       0.926648936214
       127    3       14.819846344472       2.333478215897       0.926648936214
       128    3       14.819846344472      11.667577985497       0.926648936214
       129    3        0.000000000000       4.667049884800       0.926648936214
       130    3        0.000000000000      14.001149654400       0.926648936214
       131    3        8.083567619300       0.000000000000       0.926648936214
       132    3        8.083567619300       9.334099769600       0.926648936214
       133    3        1.347288166607       7.000621553703       0.926648936214
       134    3        1.347288166607      16.334721323303       0.926648936214
       135    3        9.430855543400       2.333571668903       0.926648936214
       136    3        9.430855543400      11.667671438503       0.926648936214
       137    3        2.694495643043       9.334053043097       0.926648936214
       138    3        2.694495643043      18.668152812697       0.926648936214
       139    3       10.778063504850       4.667003158297       0.926648936214
       140    3       10.778063504850      14.001102927897       0.926648936214
       141    3        4.041783809650       2.333524942400       0.926648936214
       142    3        4.041783809650      11.667624712000       0.926648936214
       143    3       12.125351428950      16.334674596800       0.926648936214
       144    3       12.125351428950       7.000574827200       0.926648936214
       145    3        2.694495643043       1.555667756769       3.072437172876
       146    3        2.694495643043      10.889767115668       3.072437172876
       147    3       10.778063504850      15.556817000468       3.072437172876
       148    3       10.778063504850       6.222717790914       3.072437172876
       149    3        5.389072218764       6.222717790914       3.072437172876
       150    3        5.389072218764      15.556818120560       3.072437172876
       151    3       13.472640323078       1.555667906114       3.072437172876
       152    3       13.472640323078      10.889768235760       3.072437172876
       153    3        6.736279210186       8.556242173268       3.072437172876
       154    3        6.736279210186      17.890341942868       3.072437172876
       155    3       14.819846344472       3.889192288468       3.072437172876
       156    3       14.819846344472      13.223292058068       3.072437172876
       157    3        0.000000000000       6.222764517418       3.072437172876
       158    3        0.000000000000      15.556864847064       3.072437172876
       159    3        8.083567619300       1.555714632618       3.072437172876
       160    3        8.083567619300      10.889814962264       3.072437172876
       161    3        1.347288166607       8.556242173268       3.072437172876
       162    3        1.347288166607      17.890341942868       3.072437172876
       163    3        9.430855543400       3.889192288468       3.072437172876
       164    3        9.430855543400      13.223292058068       3.072437172876
       165    3        4.041783809650       3.889239294995       3.072437172876
       166    3        4.041783809650      13.223338784572       3.072437172876
       167    3       12.125351428950      17.890388669372       3.072437172876
       168    3       12.125351428950       8.556288899772       3.072437172876
       169    3        0.000000000000       1.555714352595       3.072437172876
       170    3        0.000000000000      10.889813842172       3.072437172876
       171    3        8.083567619300      15.556863726972       3.072437172876
       172    3        8.083567619300       6.222763957372       3.072437172876
       173    3        1.347288166607       3.889192848514       3.072437172876
       174    3        1.347288166607      13.223293178160       3.072437172876
       175    3        9.430855543400      17.890343062960       3.072437172876
       176    3        9.430855543400       8.556242733314       3.072437172876
       177    3        2.694495643043       6.222717790914       3.072437172876
       178    3        2.694495643043      15.556818120560       3.072437172876
       179    3       10.778063504850       1.555667906114       3.072437172876
       180    3       10.778063504850      10.889768235760       3.072437172876
       181    3        4.041783809650       8.556289459818       3.072437172876
       182    3        4.041783809650      17.890389789464       3.072437172876
       183    3       12.125351428950       3.889239575018       3.072437172876
       184    3       12.125351428950      13.223339904664       3.072437172876
       185    3        5.389072218764      10.889767115668       3.072437172876
       186    3        5.389072218764       1.555667346068       3.072437172876
       187    3       13.472640323078       6.222717230868       3.072437172876
       188    3       13.472640323078      15.556817000468       3.072437172876
       189    3        6.736279210186       3.889192568491       3.072437172876
       190    3        6.736279210186      13.223292058068       3.072437172876
       191    3       14.819846344472      17.890341942868       3.072437172876
       192    3       14.819846344472       8.556242173268       3.072437172876
       193    3        0.000000000000       0.000000000000       5.218225435286
       194    3        0.000000000000       9.334099769600       5.218225435286
       195    3        8.083567619300      14.001149654400       5.218225435286
       196    3        8.083567619300       4.667049884800       5.218225435286
       197    3        2.694495643043       4.667003158297       5.218225435286
       198    3        2.694495643043      14.001102927897       5.218225435286
       199    3       10.778063504850      18.668152812697       5.218225435286
       200    3       10.778063504850       9.334053043097       5.218225435286
       201    3        4.041783809650       7.000574827200       5.218225435286
       202    3        4.041783809650      16.334674596800       5.218225435286
       203    3       12.125351428950       2.333524942400       5.218225435286
       204    3       12.125351428950      11.667624712000       5.218225435286
       205    3        5.389072218764       9.334146496103       5.218225435286
       206    3        5.389072218764       0.000046726503       5.218225435286
       207    3       13.472640323078       4.667096611303       5.218225435286
       208    3       13.472640323078      14.001196380903       5.218225435286
       209    3        6.736279210186      11.667577985497       5.218225435286
       210    3        6.736279210186       2.333478215897       5.218225435286
       211    3       14.819846344472       7.000528100697       5.218225435286
       212    3       14.819846344472      16.334627870297       5.218225435286
       213    3        1.347288166607       2.333571668903       5.218225435286
       214    3        1.347288166607      11.667671438503       5.218225435286
       215    3        9.430855543400      16.334721323303       5.218225435286
       216    3        9.430855543400       7.000621553703       5.218225435286
       217    3        5.389072218764       4.667096611303       5.218225435286
       218    3        5.389072218764      14.001196380903       5.218225435286
       219    3       13.472640323078       0.000046726503       5.218225435286
       220    3       13.472640323078       9.334146496103       5.218225435286
       221    3        6.736279210186       7.000528100697       5.218225435286
       222    3        6.736279210186      16.334627870297       5.218225435286
       223    3       14.819846344472       2.333478215897       5.218225435286
       224    3       14.819846344472      11.667577985497       5.218225435286
       225    3        0.000000000000       4.667049884800       5.218225435286
       226    3        0.000000000000      14.001149654400       5.218225435286
       227    3        8.083567619300       0.000000000000       5.218225435286
       228    3        8.083567619300       9.334099769600       5.218225435286
       229    3        1.347288166607       7.000621553703       5.218225435286
       230    3        1.347288166607      16.334721323303       5.218225435286
       231    3        9.430855543400       2.333571668903       5.218225435286
       232    3        9.430855543400      11.667671438503       5.218225435286
       233    3        2.694495643043       9.334053043097       5.218225435286
       234    3        2.694495643043      18.668152812697       5.218225435286
       235    3       10.778063504850       4.667003158297       5.218225435286
       236    3       10.778063504850      14.001102927897       5.218225435286
       237    3        4.041783809650       2.333524942400       5.218225435286
       238    3        4.041783809650      11.667624712000       5.218225435286
       239    3       12.125351428950      16.334674596800       5.218225435286
       240    3       12.125351428950       7.000574827200       5.218225435286
       241    3        2.706106491560       1.563792773259       7.357203819289
       242    3        2.706106491560      10.897892132158       7.357203819289
       243    3       10.789674353367      15.564942016958       7.357203819289
       244    3       10.789674353367       6.230842807404       7.357203819289
       245    3        5.394231054616       6.220285959233       7.375756366038
       246    3        5.394231054616      15.554385728833       7.375756366038
       247    3       13.477798673916       1.553236074433       7.375756366038
       248    3       13.477798673916      10.887335844033       7.375756366038
       249    3        6.735967475484       8.553656235600       7.375331276459
       250    3        6.735967475484      17.887756005200       7.375331276459
       251    3       14.819535094784       3.886606350800       7.375331276459
       252    3       14.819535094784      13.220706120400       7.375331276459
       253    3        8.078691611312      10.884970209787       7.361507008046
       254    3        8.078691611312       1.550870440187       7.361507008046
       255    3       16.162259230612       6.217920324987       7.361507008046
       256    3       16.162259230612      15.552020094587       7.361507008046
       257    3        1.340677505844       8.563317906267       7.356577668262
       258    3        1.340677505844      17.897417675867       7.356577668262
       259    3        9.424245011974       3.896268021467       7.356577668262
       260    3        9.424245011974      13.230367791067       7.356577668262
       261    3        4.051163367164       3.885527291530       7.362685621042
       262    3        4.051163367164      13.219626781107       7.362685621042
       263    3       12.134731471478      17.886676665907       7.362685621042
       264    3       12.134731471478       8.552576896307       7.362685621042
       265    3        8.078977333093       6.218220770991       7.362004241840
       266    3        8.078977333093      15.552320540591       7.362004241840
       267    3       16.162544467379       1.551170886191       7.362004241840
       268    3       16.162544467379      10.885270655791       7.362004241840
       269    3        1.340601972988       3.896054382591       7.356998921478
       270    3        1.340601972988      13.230154152191       7.356998921478
       271    3        9.424169834795      17.897204036991       7.356998921478
       272    3        9.424169834795       8.563104267391       7.356998921478
       273    3        2.706463752914       6.230651981069       7.357697190974
       274    3        2.706463752914      15.564751750669       7.357697190974
       275    3       10.790030903367       1.563602096269       7.357697190974
       276    3       10.790030903367      10.897701865869       7.357697190974
       277    3        4.051605198803       8.552560766983       7.362329585990
       278    3        4.051605198803      17.886659976537       7.362329585990
       279    3       12.135172818103       3.885510882183       7.362329585990
       280    3       12.135172818103      13.219610091737       7.362329585990
       281    3        5.393889443049      10.887867719706       7.376128518962
       282    3        5.393889443049       1.553767950106       7.376128518962
       283    3       13.477456577335       6.220817834906       7.376128518962
       284    3       13.477456577335      15.554917604506       7.376128518962
       285    3        6.736144780456      13.220926442491       7.375070378052
       286    3        6.736144780456       3.886826672891       7.375070378052
       287    3       14.819712399756       8.553876557691       7.375070378052
       288    3       14.819712399756      17.887976327291       7.375070378052
       289    3        0.055257392858       9.333097212612       9.428660392723
       290    3        0.055257392858      18.667196982212       9.428660392723
       291    3        8.138825416336       4.666047327812       9.428660392723
       292    3        8.138825416336      14.000147097412       9.428660392723
       293    3        2.678870511013       4.653779968522       9.431832549680
       294    3        2.678870511013      13.987879458099       9.431832549680
       295    3       10.762438130313      18.654929342899       9.431832549680
       296    3       10.762438130313       9.320829573299       9.431832549680
       297    3        3.996971825031       7.001244679536       9.429124618350
       298    3        3.996971825031      16.335344449136       9.429124618350
       299    3       12.080539444331       2.334194794736       9.429124618350
       300    3       12.080539444331      11.668294564336       9.429124618350
       301    3        5.364654153722       9.347078443297       9.476380006472
       302    3        5.364654153722       0.012978673697       9.476380006472
       303    3       13.448221773022       4.680028558497       9.476380006472
       304    3       13.448221773022      14.014128328097       9.476380006472
       305    3        6.770448305008      11.679945761032       9.474509251862
       306    3        6.770448305008       2.345845991432       9.474509251862
       307    3       14.854015924308       7.012895876232       9.474509251862
       308    3       14.854015924308      16.346995645832       9.474509251862
       309    3        1.371452553130       2.319193776314       9.431819495748
       310    3        1.371452553130      11.653292985868       9.431819495748
       311    3        9.455020657444      16.320342870668       9.431819495748
       312    3        9.455020657444       6.986243661114       9.431819495748
       313    3        5.366347741974       4.679714764731       9.476364661021
       314    3        5.366347741974      14.013814534331       9.476364661021
       315    3       13.449915846288       0.012664879931       9.476364661021
       316    3       13.449915846288       9.346764649531       9.476364661021
       317    3        6.770530692729       7.012042422154       9.475010322019
       318    3        6.770530692729      16.346142191754       9.475010322019
       319    3       14.854097827015       2.344992537354       9.475010322019
       320    3       14.854097827015      11.679092306954       9.475010322019
       321    3        0.054432076771       4.665822002644       9.428200750133
       322    3        0.054432076771      13.999921212198       9.428200750133
       323    3        8.137999582901      18.666971096998       9.428200750133
       324    3        8.137999582901       9.332871887444       9.428200750133
       325    3        1.371810073159       6.985658935768       9.431255498945
       326    3        1.371810073159      16.319758705368       9.431255498945
       327    3        9.455377207445       2.318609050968       9.431255498945
       328    3        9.455377207445      11.652708820568       9.431255498945
       329    3        2.679622880986       9.320345544221       9.431161881398
       330    3        2.679622880986      18.654445313821       9.431161881398
       331    3       10.763190742793       4.653295659421       9.431161881398
       332    3       10.763190742793      13.987395429021       9.431161881398
       333    3        3.996701526697       2.334243481400       9.429687842731
       334    3        3.996701526697      11.668343531023       9.429687842731
       335    3       12.080268660983      16.335393415823       9.429687842731
       336    3       12.080268660983       7.001293646223       9.429687842731
