ITEM: TIMESTEP
200000000
ITEM: NUMBER OF ATOMS
336
ITEM: BOX BOUNDS pp pp pp
0.0000000000000000e+00 1.6167135238600000e+01
0.0000000000000000e+00 1.8668199539200000e+01
0.0000000000000000e+00 2.5747400283800001e+01
ITEM: ATOMS id type x y z fx fy fz
97 3 0 0 0.926649 -0.00277478 0.00388772 0.60846
193 3 0 0 5.21823 0.026421 -0.270949 -0.225877
267 3 0.0742817 1.4934 7.317 -0.86533 1.10339 0.770405
117 3 1.34729 2.33357 0.926649 -0.00354393 0.00060245 0.623897
169 3 0 1.55571 3.07244 0.0242346 -0.0262955 -0.52805
213 3 1.34729 2.33357 5.21823 0.192709 0.0866896 -0.147745
309 3 1.41925 2.30165 9.44269 -0.280015 0.6075 -0.354474
65 2 1.39509 2.35839 11.6679 -0.770744 -0.27559 0.0667702
5 1 0.395375 2.50055 11.7646 0.866369 -0.123667 0.260882
173 3 1.34729 3.88919 3.07244 -0.0226777 0.0167221 -0.558412
269 3 1.29679 3.93942 7.3333 0.981614 -0.878248 0.529444
1 1 1.89838 3.19596 11.793 -0.00145361 0.561139 0.346244
129 3 0 4.66705 0.926649 -0.00449596 0.00277978 0.612447
225 3 0 4.66705 5.21823 -0.209262 0.0840097 -0.283389
321 3 0.037034 4.74474 9.46791 -0.0941998 -0.0972808 -0.503658
133 3 1.34729 7.00062 0.926649 0.00132791 -0.00130389 0.607454
157 3 0 6.22276 3.07244 0.0125681 0.00685477 -0.505116
229 3 1.34729 7.00062 5.21823 -0.0286341 0.354503 -0.0571375
325 3 1.3014 7.02366 9.45096 0.588349 0.0955844 -0.261942
34 1 1.63672 7.06188 14.1986 -1.23144 0.396029 0.706466
161 3 1.34729 8.55624 3.07244 0.0138432 0.0235551 -0.492788
257 3 1.39906 8.65864 7.41504 -0.495171 -1.74837 -0.319128
39 1 0.0364529 7.84681 11.896 0.263443 0.152489 -0.583707
98 3 0 9.3341 0.926649 0.00156648 -0.00239428 0.608207
194 3 0 9.3341 5.21823 0.190011 0.0627776 -0.0232527
23 1 1.99903 10.2517 12.2089 0.712249 0.129788 0.037063
118 3 1.34729 11.6677 0.926649 0.00278101 -0.00225236 0.620072
170 3 0 10.8898 3.07244 0.00280911 0.00168104 -0.508194
214 3 1.34729 11.6677 5.21823 0.0888751 -0.146967 -0.155829
310 3 1.36411 11.6991 9.35588 -0.316771 -0.441398 0.935243
93 2 1.10804 11.6451 11.7217 1.31945 0.711547 0.365139
57 1 0.169866 11.6762 11.5043 -0.99753 0.17679 0.133965
174 3 1.34729 13.2233 3.07244 -0.000375891 0.0132321 -0.54637
270 3 1.32312 13.2298 7.30659 0.0686049 0.193588 0.843829
61 1 1.45598 12.5868 11.9254 -0.238128 -0.763217 -0.178554
130 3 0 14.0011 0.926649 0.00239891 0.00085875 0.61956
226 3 0 14.0011 5.21823 -0.215106 0.0467473 -0.18345
24 1 1.98661 14.7825 11.9139 0.485798 -0.886926 -0.0161239
134 3 1.34729 16.3347 0.926649 -0.00680006 0.0024686 0.613368
158 3 0 15.5569 3.07244 -0.00570536 0.0155483 -0.493552
230 3 1.34729 16.3347 5.21823 -0.114035 0.151523 0.104697
326 3 1.3454 16.2996 9.53032 -0.356401 0.260228 -0.335991
88 2 1.44242 16.4444 11.8702 1.23804 -0.471734 -0.540533
48 1 0.552586 16.6036 12.1937 -1.03429 0.323122 0.19437
162 3 1.34729 17.8903 3.07244 -0.00719457 0.00647194 -0.492112
258 3 1.2818 17.8949 7.433 0.788745 -0.386812 -0.192244
44 1 2.01744 17.2568 11.9567 -0.122157 0.0305359 0.382965
145 3 2.6945 1.55567 3.07244 0.0100528 -0.0106066 -0.508795
330 3 2.72576 0.0102289 9.52805 0.0747843 0.074694 -0.555545
33 1 2.31723 0.842918 12.3799 -0.790618 1.1022 0.0673454
37 1 3.83724 0.401911 12.3808 -0.504949 -0.352987 -0.0671068
81 2 2.88062 0.091769 12.2084 1.16056 -1.13692 -0.439642
241 3 2.71522 1.58332 7.37278 0.0234822 -0.323843 0.0668805
101 3 2.6945 4.667 0.926649 -0.00191707 -0.00177903 0.609517
197 3 2.6945 4.667 5.21823 -0.0807948 0.00449215 -0.185891
293 3 2.78325 4.63692 9.44393 -0.345934 0.904615 0.290808
10 1 3.70874 4.57058 12.3352 -0.928568 0.172263 -0.550431
177 3 2.6945 6.22272 3.07244 -0.0214096 -0.00707211 -0.522003
14 1 2.33955 5.48422 12.0899 0.528474 -0.241651 0.362508
70 2 2.84469 4.68435 11.8051 0.0224014 -0.481191 0.0658446
273 3 2.66666 6.22867 7.32746 0.589595 0.329159 0.770485
38 1 2.77203 7.4272 13.3196 -0.0348089 -0.248002 -0.101578
82 2 2.31022 6.63876 13.6813 1.30458 0.0879711 -0.849288
137 3 2.6945 9.33405 0.926649 0.00218089 -0.000730737 0.608439
233 3 2.6945 9.33405 5.21823 0.11562 -0.0118089 -0.0943367
146 3 2.6945 10.8898 3.07244 0.004971 -0.0213773 -0.508492
242 3 2.72303 10.8097 7.40267 -0.0189168 1.12038 -0.451701
329 3 2.73309 9.39249 9.62318 0.124847 -0.550984 -0.52173
19 1 3.5834 9.92623 12.3343 1.41399 1.18739 0.618047
75 2 2.73412 9.59448 12.0814 -1.85865 -1.54887 -0.938552
102 3 2.6945 14.0011 0.926649 0.00290634 -0.00208961 0.626768
198 3 2.6945 14.0011 5.21823 0.103847 0.0700103 0.142722
262 3 4.03779 13.129 7.38574 -0.133827 1.62087 0.0157989
294 3 2.54623 13.953 9.52161 0.918095 0.394877 -0.588988
76 2 2.48255 13.8918 11.7899 0.88743 1.68104 0.958075
178 3 2.6945 15.5568 3.07244 -0.0148784 0.022483 -0.455726
20 1 3.42283 14.1262 12.2534 -1.31941 -0.284922 -0.831341
274 3 2.6032 15.5891 7.41339 0.974633 -0.579225 -0.12336
298 3 4.03847 16.3683 9.45306 0.237544 -0.683323 -0.240716
138 3 2.6945 18.6682 0.926649 0.000874875 -0.00136277 0.598139
234 3 2.6945 18.6682 5.21823 -0.106437 -0.091844 0.132683
110 3 5.38907 4.67265e-05 0.926649 -0.00201755 -0.0053233 0.613073
186 3 5.38907 1.55567 3.07244 -0.0235707 -0.0221003 -0.488932
206 3 5.38907 4.67265e-05 5.21823 -0.0366298 -0.203877 -0.127032
282 3 5.33685 1.52648 7.35169 0.757228 0.487331 0.308576
74 2 5.34214 0.996553 12.6521 1.14034 0.629082 -1.61967
22 1 5.79149 1.31219 11.7788 -1.27023 -0.0956462 0.814233
141 3 4.04178 2.33352 0.926649 0.000852789 0.00111431 0.610493
237 3 4.04178 2.33352 5.21823 -0.0754825 0.104891 -0.146794
333 3 4.09679 2.37899 9.43685 0.499326 -0.277779 -0.358545
165 3 4.04178 3.88924 3.07244 0.0218908 0.0152256 -0.529006
261 3 4.06725 3.94243 7.3411 -0.167899 -0.620427 0.25748
9 1 5.56492 4.52892 11.8278 0.288567 -0.753607 0.365531
69 2 5.4067 4.31598 12.8082 -0.382027 0.389893 -1.13554
121 3 5.38907 4.6671 0.926649 0.00243744 0.00461301 0.613597
149 3 5.38907 6.22272 3.07244 0.00745844 0.0217998 -0.534145
217 3 5.38907 4.6671 5.21823 0.0914739 0.0902542 -0.172455
313 3 5.4215 4.72695 9.47265 0.230256 -0.234914 -1.01382
13 1 5.2381 5.2305 13.0747 0.270411 0.764412 0.981562
105 3 4.04178 7.00057 0.926649 -0.0042615 0.00027525 0.615151
201 3 4.04178 7.00057 5.21823 -0.212509 0.206796 -0.316582
245 3 5.41473 6.31544 7.28512 -0.486998 -1.4388 1.17176
297 3 4.12453 7.02649 9.45336 -0.293234 -0.0573378 -0.392329
64 1 5.93056 7.52895 12.0405 0.342828 0.0762818 -0.862761
181 3 4.04178 8.55629 3.07244 0.0167226 -0.00239509 -0.520563
277 3 4.11176 8.57454 7.37487 -1.21007 -0.173804 0.210418
96 2 5.90041 7.85236 12.9514 0.580169 0.51228 1.56457
109 3 5.38907 9.33415 0.926649 0.000608306 0.00256369 0.599333
185 3 5.38907 10.8898 3.07244 -0.0059287 0.0135555 -0.478601
205 3 5.38907 9.33415 5.21823 -0.0424164 0.152603 -0.50549
301 3 5.47185 9.40584 9.39383 -0.157104 -0.62139 0.872994
94 2 5.19968 10.7217 13.2164 -1.45014 -1.70714 0.640019
58 1 5.64036 9.84824 13.3136 -0.431263 0.035719 0.0192776
142 3 4.04178 11.6676 0.926649 0.00433558 -0.00517298 0.606967
238 3 4.04178 11.6676 5.21823 -0.157062 -0.099311 -0.242086
281 3 5.35256 10.9124 7.35468 0.800067 -0.215738 -0.280991
334 3 4.14179 11.5866 9.42575 -0.339411 0.600543 0.557418
59 1 5.89975 11.2621 12.9058 1.44319 1.7058 -0.767249
166 3 4.04178 13.2233 3.07244 0.00977592 -0.0148033 -0.50057
314 3 5.48141 13.9213 9.48826 -0.527169 0.404925 -0.149626
122 3 5.38907 14.0012 0.926649 -0.00222187 0.000514164 0.62091
150 3 5.38907 15.5568 3.07244 -0.00913145 -0.0179687 -0.428347
218 3 5.38907 14.0012 5.21823 -0.0956405 -0.094855 -0.0376411
246 3 5.32072 15.461 7.42756 0.11759 0.928681 -0.58582
72 2 4.7857 14.8021 12.9612 -0.748013 2.12092 -1.52698
12 1 5.38274 15.1858 12.241 -0.766941 -0.378606 0.544744
16 1 5.24647 14.0471 13.2527 1.40108 -2.05048 0.885846
106 3 4.04178 16.3347 0.926649 -0.00335055 1.71381e-05 0.627759
202 3 4.04178 16.3347 5.21823 -0.1142 -0.150821 0.226026
182 3 4.04178 17.8904 3.07244 -0.00306539 -0.00672361 -0.462003
302 3 5.27312 18.5534 9.44823 1.35852 1.04315 0.287556
278 3 4.05799 17.8827 7.37222 -0.613642 -0.30615 -0.0890272
254 3 8.07593 1.5027 7.30374 0.78622 0.726805 0.968921
18 1 6.11543 0.473935 12.9267 0.16028 -0.669427 0.736631
114 3 6.73628 2.33348 0.926649 0.00518945 -0.000942779 0.620913
210 3 6.73628 2.33348 5.21823 -0.128667 -0.287666 -0.51481
306 3 6.78647 2.36621 9.42088 -0.136852 -0.263817 0.250823
63 1 7.10578 2.75051 12.8951 -1.20995 0.700143 0.306207
95 2 7.96807 2.41267 12.6889 1.57105 -0.659389 -0.919015
53 1 8.04155 2.45701 11.6887 -0.143389 0.0777816 0.735325
189 3 6.73628 3.88919 3.07244 0.0129956 -0.0217249 -0.53221
286 3 6.73548 3.79942 7.30993 0.159262 1.22629 0.867969
291 3 8.08075 4.6932 9.56769 0.150216 -0.413487 -1.0405
125 3 6.73628 7.00053 0.926649 -0.000284849 0.00629949 0.607488
221 3 6.73628 7.00053 5.21823 0.226291 0.171203 -0.523963
317 3 6.81447 6.96274 9.41518 -1.14247 0.286193 0.583602
265 3 8.05061 6.22336 7.37687 0.419986 -0.365996 -0.1668
153 3 6.73628 8.55624 3.07244 -0.000921528 0.0226337 -0.537915
249 3 6.7356 8.60411 7.32236 0.516547 -0.582271 0.344419
60 1 6.805 8.20124 13.2146 -0.827547 -0.659965 -0.732181
113 3 6.73628 11.6676 0.926649 -0.000313864 -0.000448217 0.601692
209 3 6.73628 11.6676 5.21823 -0.0300722 0.15974 -0.0647371
305 3 6.84361 11.6709 9.39992 -0.72994 0.0312136 0.187069
17 1 7.713 12.3569 11.7649 0.183055 0.54928 -0.0887145
190 3 6.73628 13.2233 3.07244 0.0153224 0.0339067 -0.480648
285 3 6.78461 13.3029 7.36847 -0.809633 -1.21943 0.00579834
21 1 7.72929 13.3686 13.0504 0.300258 -0.039695 -0.352554
73 2 7.46094 12.4905 12.7103 -0.526497 -0.666972 0.549118
292 3 8.05536 14.0273 9.52461 0.153381 -0.036505 -0.44151
266 3 8.05996 15.5443 7.41025 0.491451 0.188837 -0.414644
126 3 6.73628 16.3346 0.926649 0.000677036 0.000751222 0.60804
222 3 6.73628 16.3346 5.21823 -0.197372 0.0140208 0.311318
318 3 6.68495 16.3646 9.41984 0.277773 -0.332904 0.683941
154 3 6.73628 17.8903 3.07244 0.0205554 0.0213197 -0.467708
250 3 6.79503 17.9754 7.389 -0.878574 -1.30507 -0.0575553
87 2 7.73966 17.8253 12.7893 -0.790844 -0.445298 -1.16682
43 1 7.56124 17.6614 11.8035 -0.043387 0.109234 0.895252
131 3 8.08357 0 0.926649 0.00455966 0.000457182 0.616296
227 3 8.08357 0 5.21823 0.168816 -0.257152 -0.351365
135 3 9.43086 2.33357 0.926649 0.00381719 -0.00191154 0.616391
159 3 8.08357 1.55571 3.07244 0.0114091 -0.00509819 -0.519188
231 3 9.43086 2.33357 5.21823 0.185907 0.0410379 0.0740254
327 3 9.6508 2.29651 9.44536 -1.30166 0.245862 0.398564
163 3 9.43086 3.88919 3.07244 0.00807447 0.00712665 -0.466708
259 3 9.44135 3.8803 7.40955 0.116104 0.185822 0.0011921
100 3 8.08357 4.66705 0.926649 -0.000559512 0.00422101 0.596358
196 3 8.08357 4.66705 5.21823 0.0959862 -0.124104 -0.0225888
46 1 8.84277 6.17187 12.1936 -0.204828 0.0211052 -0.293405
120 3 9.43086 7.00062 0.926649 -0.00249868 -0.000924314 0.607507
172 3 8.08357 6.22276 3.07244 -0.00503314 -0.0247223 -0.505818
216 3 9.43086 7.00062 5.21823 -0.295843 -0.0910137 -0.465761
312 3 9.32446 7.07593 9.51853 0.894689 -0.726616 -0.394921
42 1 8.94784 7.33676 13.1722 -1.07325 2.76788 0.429701
86 2 9.28224 6.49548 12.9993 1.27285 -2.88123 -0.19071
176 3 9.43086 8.55624 3.07244 0.0177597 -0.00889604 -0.53684
272 3 9.41752 8.50488 7.34124 0.0205279 0.961224 0.429597
324 3 8.12918 9.3103 9.51062 -0.423674 0.260517 -0.657797
132 3 8.08357 9.3341 0.926649 0.00246247 -0.000534284 0.618099
228 3 8.08357 9.3341 5.21823 0.0853189 -0.0754236 -0.307458
253 3 8.10443 10.8593 7.3307 0.150927 0.34505 0.358046
91 2 8.59734 9.63837 12.9561 0.402132 -1.38498 0.165623
51 1 8.58458 9.46366 11.9808 0.00134836 0.371986 -0.0238007
55 1 8.1462 10.472 13.1102 -0.214769 0.971417 -0.0295721
136 3 9.43086 11.6677 0.926649 4.81426e-05 0.0028202 0.617521
160 3 8.08357 10.8898 3.07244 0.0067052 -0.01574 -0.498907
232 3 9.43086 11.6677 5.21823 0.0074528 -0.0729723 -0.336169
328 3 9.43308 11.5814 9.52126 -0.0640729 0.466647 -0.515645
164 3 9.43086 13.2233 3.07244 -0.00769866 -0.00376987 -0.572847
260 3 9.39483 13.1983 7.30453 0.533158 0.259456 0.89249
99 3 8.08357 14.0011 0.926649 0.00303317 0.00175346 0.623407
195 3 8.08357 14.0011 5.21823 -0.0245657 0.254568 -0.291682
85 2 8.74093 15.0398 12.8431 -0.506996 1.23857 -0.524087
45 1 8.61553 14.9019 11.8428 0.256469 0.259954 0.732403
119 3 9.43086 16.3347 0.926649 0.00282512 0.00347507 0.617314
171 3 8.08357 15.5569 3.07244 -0.0256149 0.0225165 -0.457316
215 3 9.43086 16.3347 5.21823 0.0227586 -0.221971 -0.0317141
311 3 9.51648 16.2987 9.47649 -0.698284 0.10303 0.244889
41 1 8.40502 16.0027 12.9812 0.163021 -1.20121 -0.157962
175 3 9.43086 17.8903 3.07244 0.0262405 -0.0232308 -0.49436
271 3 9.46053 17.8069 7.35886 -0.0638657 1.06433 0.25809
323 3 8.19731 18.6218 9.4967 -0.45087 0.406259 -0.406706
47 1 8.55442 18.3828 12.7418 0.412061 -0.0730721 0.350097
179 3 10.7781 1.55567 3.07244 0.0219183 -0.000663378 -0.461897
275 3 10.8077 1.54398 7.37778 0.113607 -0.0884359 -0.352877
15 1 10.3819 0.650024 12.0454 0.133385 0.840372 -0.901251
107 3 12.1254 2.33352 0.926649 0.00131398 -0.00197226 0.628342
203 3 12.1254 2.33352 5.21823 0.120208 0.146163 0.262127
139 3 10.7781 4.667 0.926649 0.0019869 0.0032832 0.619007
183 3 12.1254 3.88924 3.07244 0.00284581 0.0268599 -0.453865
235 3 10.7781 4.667 5.21823 -0.101345 0.0444631 0.0131235
54 1 11.2005 3.57529 11.8009 0.19695 0.0391801 0.221445
90 2 11.2197 3.78459 12.7736 0.247522 -0.0043605 -0.381332
50 1 10.3283 3.51539 13.0431 -0.448248 -0.0294529 0.249902
148 3 10.7781 6.22272 3.07244 -0.0319667 0.00527727 -0.479126
331 3 10.8085 4.70114 9.49375 -0.456144 -0.4029 -0.287287
32 1 11.353 6.13012 12.4066 -1.61877 -1.93499 0.485467
144 3 12.1254 7.00057 0.926649 -0.002172 -0.00470844 0.611757
240 3 12.1254 7.00057 5.21823 -0.213755 -0.199655 -0.159705
336 3 12.0578 7.01843 9.53381 0.282055 -0.22017 0.00974605
244 3 10.6398 6.25687 7.36613 1.73737 -0.628393 0.392794
28 1 11.7663 7.51147 12.4211 0.605928 0.631651 -0.156537
80 2 12.0948 6.6208 12.0974 1.34245 0.833701 -0.637286
104 3 10.7781 9.33405 0.926649 -0.00791241 -0.00276538 0.600728
168 3 12.1254 8.55629 3.07244 -0.00918333 -0.0095818 -0.505874
200 3 10.7781 9.33405 5.21823 -0.101131 -0.0236935 -0.217482
264 3 12.075 8.5193 7.33358 0.288643 0.245238 0.515933
68 2 11.4145 9.01155 12.5431 -1.59065 1.77149 1.63076
180 3 10.7781 10.8898 3.07244 -0.00462494 -0.00192522 -0.506248
296 3 10.8027 9.35508 9.57282 -0.257506 -0.345572 -0.815725
276 3 10.7345 10.8686 7.36849 0.281577 -0.0914351 0.209255
4 1 10.6363 9.34956 13.1099 0.696753 -0.804458 -1.20976
108 3 12.1254 11.6676 0.926649 0.00149173 -0.0031574 0.607797
204 3 12.1254 11.6676 5.21823 -0.231944 0.122335 -0.225548
300 3 12.1199 11.5159 9.43062 0.342904 1.08152 0.00885142
31 1 10.8186 12.3164 12.066 0.0105554 0.409101 0.0565334
140 3 10.7781 14.0011 0.926649 -0.00829409 -0.00209207 0.617528
184 3 12.1254 13.2233 3.07244 0.000640085 0.00774983 -0.476939
236 3 10.7781 14.0011 5.21823 -0.0508575 -0.0423908 -0.0695484
280 3 12.0859 13.2305 7.40866 0.0676072 -0.675743 -0.354177
332 3 10.7649 13.9231 9.56884 -0.0367057 0.194412 -0.687743
27 1 10.6762 13.6346 12.9617 0.506664 -1.23298 -0.350895
79 2 11.2533 12.8359 12.7826 -0.403671 0.653657 0.227362
147 3 10.7781 15.5568 3.07244 0.0158245 -0.0120664 -0.475731
243 3 10.7626 15.4898 7.42134 0.0318066 0.392198 -0.352947
143 3 12.1254 16.3347 0.926649 0.0022634 -0.00495061 0.616568
239 3 12.1254 16.3347 5.21823 -0.117537 -0.0327552 0.111827
335 3 12.1042 16.2855 9.48256 0.083465 -0.000981514 0.161883
25 1 11.9269 15.6515 12.1473 -0.954302 0.543127 0.998862
77 2 11.4769 16.1248 12.9261 -0.210711 -1.02534 -0.733234
29 1 10.5933 15.6482 13.084 1.195 0.636031 -0.511945
103 3 10.7781 18.6682 0.926649 -0.00101358 -0.00382651 0.608041
167 3 12.1254 17.8904 3.07244 0.00730857 -0.0100917 -0.461016
199 3 10.7781 18.6682 5.21823 0.165593 -0.178742 0.129815
295 3 10.8622 18.6302 9.47618 -0.761806 0.322388 0.0677659
11 1 10.7901 17.887 12.433 0.0210954 -0.512649 -0.0129806
71 2 10.2616 18.6528 12.7215 0.113703 -0.0549883 0.935216
123 3 13.4726 4.67265e-05 0.926649 -0.0035481 -0.000128063 0.60713
151 3 13.4726 1.55567 3.07244 0.0134755 -0.019492 -0.500633
219 3 13.4726 4.67265e-05 5.21823 -0.0889907 -0.179753 -0.130656
247 3 13.5361 1.49447 7.35703 -0.564475 1.02123 0.0204552
315 3 13.4886 0.00410943 9.47565 -0.162719 0.154388 -0.149037
78 2 13.3675 0.048763 12.7508 1.44003 0.533649 0.789585
30 1 12.6021 0.192872 13.3294 -0.471104 -0.166992 -0.185272
299 3 12.2631 2.34718 9.40761 -1.1461 0.174478 0.299169
279 3 12.1264 3.98381 7.41192 -0.0945827 -1.12325 -0.488332
303 3 13.6007 4.62132 9.46716 -0.928474 0.688685 0.0700218
111 3 13.4726 4.6671 0.926649 0.00305113 -0.00137518 0.614604
187 3 13.4726 6.22272 3.07244 -0.0190448 -0.00806397 -0.50752
207 3 13.4726 4.6671 5.21823 -0.071405 0.0992034 0.0383002
283 3 13.353 6.22169 7.41972 1.46586 0.183912 -0.205245
67 2 14.0657 4.80223 13.3219 1.49194 0.704313 -2.49999
7 1 13.6832 5.39026 12.5968 0.163775 -0.754229 0.979986
3 1 13.3861 4.7349 13.9635 -1.67227 -0.0876622 1.25033
316 3 13.5391 9.28793 9.32837 -0.685724 0.299274 0.88721
124 3 13.4726 9.33415 0.926649 -0.00336319 -0.00474165 0.623385
152 3 13.4726 10.8898 3.07244 -0.0144259 0.00212282 -0.5269
220 3 13.4726 9.33415 5.21823 -0.0536191 -0.21355 -0.189711
36 1 13.9126 10.3789 11.8598 0.16852 -0.65394 1.37695
84 2 13.8775 10.0869 12.8412 1.52952 -0.851015 -0.805558
8 1 12.1372 9.61098 12.8842 0.59355 -0.519313 -0.541286
248 3 13.4482 10.8992 7.28792 0.259136 -0.448478 0.886835
304 3 13.3413 13.9834 9.45521 0.810678 -0.210139 0.33361
56 1 13.2971 13.3966 12.4546 -0.252825 0.0896627 0.385833
112 3 13.4726 14.0012 0.926649 -0.00467922 0.00563494 0.610258
188 3 13.4726 15.5568 3.07244 -0.0153001 -0.00508047 -0.495415
208 3 13.4726 14.0012 5.21823 -0.15643 -0.0634008 -0.0547093
284 3 13.4228 15.5147 7.36132 0.662184 0.532553 0.281614
263 3 12.149 17.877 7.45592 0.0600158 -0.198203 -1.24203
26 1 13.0924 18.2888 11.9272 -1.02988 -0.117547 -0.828063
290 3 16.1171 0.130013 9.48355 0.437754 -1.14396 -0.435998
49 1 14.3642 1.45633 12.0284 -0.353305 -0.988869 0.233089
127 3 14.8198 2.33348 0.926649 0.000271593 -0.00057273 0.619887
223 3 14.8198 2.33348 5.21823 0.0815256 -0.0137339 -0.0192125
319 3 14.8947 2.35812 9.4648 -0.429149 -0.0737352 -0.266879
89 2 14.8836 2.23313 11.7668 0.156095 0.960768 0.586493
62 1 14.508 2.94511 12.3416 -0.0164143 0.475959 -0.289621
155 3 14.8198 3.88919 3.07244 -0.00489145 0.000596414 -0.514362
251 3 14.8167 3.90429 7.37529 0.27701 0.205091 -0.148812
115 3 14.8198 7.00053 0.926649 0.00368199 -0.00113146 0.621744
211 3 14.8198 7.00053 5.21823 -0.241446 -0.196573 0.0388744
255 3 16.167 6.23339 7.35362 -0.246993 -0.0144986 0.462977
307 3 14.8996 7.03019 9.48777 -0.509348 -0.25781 -0.557583
35 1 15.2225 7.12621 12.8095 -0.190211 -0.320395 0.0721983
192 3 14.8198 8.55624 3.07244 0.0208641 -0.0181025 -0.482062
287 3 14.8357 8.52701 7.34135 0.170894 0.302324 -0.0977704
83 2 15.7443 7.9402 12.749 -0.251233 0.254869 0.716411
40 1 14.6168 9.33016 12.9511 -1.65595 1.62334 -0.686141
289 3 16.1257 9.33848 9.42036 0.191459 -0.199075 0.199274
128 3 14.8198 11.6676 0.926649 -0.00624017 -0.00425083 0.614012
224 3 14.8198 11.6676 5.21823 0.0419615 0.0303599 -0.274808
320 3 14.8069 11.5801 9.44294 -0.595275 0.592528 -0.144127
268 3 16.1439 10.9122 7.37886 0.121332 -0.450829 -0.646847
156 3 14.8198 13.2233 3.07244 -0.00930897 -0.0088748 -0.491878
252 3 14.7883 13.1802 7.38274 -0.178788 0.684364 -0.422402
52 1 14.6698 13.247 11.8678 0.308212 0.0626087 -0.22521
92 2 14.1963 13.7807 12.539 -0.34413 -0.115716 -0.180902
322 3 16.0337 14.0212 9.39759 0.756388 -0.398124 0.166775
2 1 14.4711 15.481 12.0054 -0.784168 -1.74767 0.66449
116 3 14.8198 16.3346 0.926649 -0.0052555 0.00201458 0.628503
212 3 14.8198 16.3346 5.21823 -0.153658 0.0939443 0.225407
308 3 14.8706 16.4176 9.53965 -0.676347 -0.70011 -0.543104
256 3 16.1326 15.5589 7.3722 0.168367 0.058433 0.180082
66 2 14.8567 16.3237 11.778 0.0504998 2.75061 0.290663
6 1 14.258 17.0626 12.1501 0.945978 -1.26331 -0.346002
191 3 14.8198 17.8903 3.07244 -0.00627887 0.0146988 -0.476359
288 3 14.7897 17.9449 7.42659 0.775752 -0.896534 -0.536572
