ITEM: TIMESTEP
495249000
ITEM: NUMBER OF ATOMS
336
ITEM: BOX BOUNDS pp pp pp
0.0000000000000000e+00 1.6167135238600000e+01
0.0000000000000000e+00 1.8668199539200000e+01
0.0000000000000000e+00 2.5747400283800001e+01
ITEM: ATOMS id type x y z fx fy fz
97 3 0 0 0.926649 -0.01113 -0.0161415 0.591669
193 3 0 0 5.21823 0.114527 0.260479 -0.693947
169 3 0 1.55571 3.07244 -0.020543 -0.0108395 -0.456387
52 1 0.336491 3.24933 12.748 -2.18346 -0.747046 0.824094
56 1 1.25269 3.26265 11.5758 -0.00516658 0.300056 -0.181189
269 3 1.27237 3.92292 7.3584 0.660685 -0.340119 -0.765835
92 2 1.20556 3.51415 12.5339 2.05304 0.743817 -0.653136
129 3 0 4.66705 0.926649 -0.00147881 0.00703735 0.618546
225 3 0 4.66705 5.21823 -0.205601 -0.0138379 -0.342838
24 1 1.04639 5.43853 12.5365 -0.0775845 1.69115 0.889759
157 3 0 6.22276 3.07244 0.00390884 -0.0169489 -0.50372
325 3 1.29224 6.97068 9.47228 -0.24766 0.220758 -0.710286
17 1 0.929525 6.80706 11.9064 -0.577932 0.999758 -1.40058
73 2 1.02308 6.45156 12.787 0.659319 -2.82585 0.482304
257 3 1.307 8.61893 7.38615 0.171095 -0.57795 0.042655
98 3 0 9.3341 0.926649 0.0833283 -0.0747206 0.661683
194 3 0 9.3341 5.21823 -0.114443 0.340081 0.151381
170 3 0 10.8898 3.07244 0.0402638 0.0543821 -0.330699
310 3 1.24222 11.6391 9.49989 0.243329 0.323806 0.493383
26 1 0.14124 11.3446 12.2113 0.109709 -0.50458 0.164741
30 1 1.08781 12.6334 12.1093 -0.514369 0.203016 0.186881
78 2 0.98415 11.6866 11.8368 0.30722 0.731495 -0.0966674
130 3 0 14.0011 0.926649 0.17168 -0.053663 0.265276
226 3 0 14.0011 5.21823 0.0417231 -0.379942 -0.036222
10 1 1.01286 14.6768 13.7653 0.702129 -0.445405 -0.639634
94 2 0.198524 14.1517 24.1994 0.69481 1.25615 -0.393896
62 1 1.16803 14.3425 23.8903 -2.06303 -0.0697252 0.830277
158 3 0 15.5569 3.07244 -0.008477 -0.00762085 -0.482763
256 3 0.0211786 15.5229 7.33085 0.09682 0.413805 0.215744
258 3 1.26767 17.9081 7.39622 1.55434 -0.144246 -0.934302
64 1 0.953595 18.2231 13.0805 -0.575313 -0.402038 0.506131
145 3 2.6945 1.55567 3.07244 -0.00143505 0.016405 -0.518034
241 3 2.66401 1.6065 7.33295 0.176205 -0.994882 -0.199297
117 3 1.34729 2.33357 0.926649 0.00139987 -0.0135291 0.61181
213 3 1.34729 2.33357 5.21823 -0.371221 0.0179444 -0.22039
309 3 1.38529 2.352 9.33151 -0.798816 -0.168386 1.31373
101 3 2.6945 4.667 0.926649 -0.00373487 0.00680814 0.60722
173 3 1.34729 3.88919 3.07244 -0.0124071 0.00143599 -0.494155
197 3 2.6945 4.667 5.21823 -0.0916301 0.108047 -0.170438
293 3 2.64504 4.69084 9.30673 -0.419278 -0.621554 1.78034
177 3 2.6945 6.22272 3.07244 0.00392598 -0.00299262 -0.482457
133 3 1.34729 7.00062 0.926649 0.00849907 -0.0143292 0.602892
229 3 1.34729 7.00062 5.21823 -0.0277884 0.0221293 0.317545
137 3 2.6945 9.33405 0.926649 -0.0107989 0.0105616 0.632067
161 3 1.34729 8.55624 3.07244 -0.0858409 0.0552561 -0.56916
233 3 2.6945 9.33405 5.21823 -0.145395 0.0264053 0.0167296
329 3 2.55026 9.28712 9.5727 -0.0117228 0.301475 -1.1559
146 3 2.6945 10.8898 3.07244 -0.0744423 0.0557965 -0.571634
118 3 1.34729 11.6677 0.926649 0.214592 -0.170654 0.780279
214 3 1.34729 11.6677 5.21823 -0.0574598 -0.131855 0.328717
38 1 2.66942 11.7598 12.2034 0.0193243 -0.541749 -0.0827049
102 3 2.6945 14.0011 0.926649 0.214573 -0.032893 0.721205
174 3 1.34729 13.2233 3.07244 0.0295164 -0.112565 -0.399199
198 3 2.6945 14.0011 5.21823 -0.15767 -0.188916 -0.196501
294 3 2.66799 13.932 9.47603 -0.338481 1.15813 -0.455818
270 3 1.35192 13.188 7.42029 -0.110629 0.603366 -0.638154
70 2 1.65485 14.1608 13.1953 -1.07741 -0.273198 0.457334
58 1 2.15721 14.8508 12.7244 0.373087 0.411827 0.0299242
178 3 2.6945 15.5568 3.07244 0.0341754 -0.0155475 -0.433693
134 3 1.34729 16.3347 0.926649 0.0539252 0.173995 0.693263
230 3 1.34729 16.3347 5.21823 0.117306 -0.0165416 -0.149818
326 3 1.47017 16.4132 9.42151 -1.48098 -1.01094 0.116332
138 3 2.6945 18.6682 0.926649 0.0244711 0.0163959 0.620134
162 3 1.34729 17.8903 3.07244 -0.0189096 -0.0590123 -0.56542
234 3 2.6945 18.6682 5.21823 -0.485529 0.14087 -0.308953
96 2 1.7481 18.6379 12.7258 0.555138 -0.00722976 -0.251327
60 1 1.66527 18.4175 11.7644 -0.116306 0.338352 -0.309101
9 1 2.90423 2.30548 12.208 -0.330898 -0.788761 0.190463
95 2 3.82364 2.24315 12.507 0.984002 0.865491 0.0811109
261 3 4.02445 3.85542 7.332 0.312459 0.382806 0.156192
273 3 2.7027 6.2077 7.40787 -0.525216 1.15922 -1.13229
85 2 3.77221 6.67975 11.7819 2.05636 1.44653 -0.645318
45 1 2.8853 6.52553 12.0651 -1.7039 -0.572753 1.0012
297 3 3.90479 7.06374 9.518 0.669745 -0.510285 -0.0846273
277 3 4.01147 8.60486 7.36711 -0.312148 -0.599981 0.639067
242 3 2.71959 10.8169 7.41902 -0.906222 1.10284 -0.0461908
334 3 3.86879 11.756 9.55612 1.06908 -0.669482 -0.30127
82 2 3.63605 11.6726 12.0275 1.24544 1.83615 0.928396
262 3 3.99791 13.2406 7.33567 0.510439 -0.500076 0.718487
274 3 2.78059 15.5498 7.32049 -1.26507 -0.257013 0.478427
298 3 3.92894 16.3259 9.45946 1.23599 -0.198807 0.417874
68 2 3.26447 16.2439 12.6459 -1.49596 2.22114 -0.808727
4 1 2.96603 17.2232 12.5529 0.0607851 -1.72386 0.391521
278 3 4.01571 17.8856 7.25153 0.144032 -0.216688 1.68889
330 3 2.71678 18.589 9.51755 -0.112883 0.983824 -1.01643
282 3 5.21332 1.50854 7.37934 2.57139 0.0698372 -0.337987
333 3 4.05078 2.26066 9.40641 -0.504137 0.270745 0.946424
59 1 4.18741 1.34211 12.5632 -0.409145 -0.0680341 -0.243886
141 3 4.04178 2.33352 0.926649 -0.00105263 0.00370092 0.611667
237 3 4.04178 2.33352 5.21823 -0.0604205 0.0906927 -0.513394
165 3 4.04178 3.88924 3.07244 0.0192592 0.00776737 -0.544072
43 1 4.57867 3.71371 12.0624 -0.0526631 -1.15215 0.336195
87 2 5.12812 4.45946 11.7446 0.973781 1.23045 0.0521621
313 3 5.31821 4.69641 9.53221 -0.310307 -0.336954 -0.834751
245 3 5.34682 6.29256 7.37477 0.428799 -0.777743 0.510256
41 1 4.43357 6.02905 12.1213 -0.485988 -0.255486 -0.223421
105 3 4.04178 7.00057 0.926649 -0.0155041 0.0147957 0.614278
201 3 4.04178 7.00057 5.21823 -0.13781 0.154228 0.055846
181 3 4.04178 8.55629 3.07244 0.00409511 0.0167529 -0.484395
36 1 4.36681 8.93917 12.1486 -0.99884 -1.4982 0.269412
301 3 5.22483 9.40909 9.56702 0.847527 -0.610003 -0.436579
46 1 4.75715 10.395 12.1371 0.138755 -0.126313 -0.410919
86 2 5.08065 9.488 11.8554 1.0834 1.09076 0.149958
142 3 4.04178 11.6676 0.926649 -0.0118226 0.00809427 0.624427
238 3 4.04178 11.6676 5.21823 0.0568058 -0.131658 0.289529
34 1 4.06199 12.4985 12.4518 -0.805864 -1.34203 -0.827181
166 3 4.04178 13.2233 3.07244 -0.0643571 0.0331214 -0.531103
57 1 5.33438 15.1223 14.6845 -0.0692697 0.051795 -0.162559
93 2 5.37165 14.7326 13.7904 -0.0391564 -0.0740802 0.440975
106 3 4.04178 16.3347 0.926649 0.0137568 0.0137218 0.601175
202 3 4.04178 16.3347 5.21823 0.208781 -0.0826287 -0.573836
8 1 4.18365 16.339 12.8592 1.33269 -0.387013 0.280397
182 3 4.04178 17.8904 3.07244 -0.026513 0.0028883 -0.59213
110 3 5.38907 4.67265e-05 0.926649 -0.00632538 -0.0120979 0.610987
206 3 5.38907 4.67265e-05 5.21823 0.203615 -0.0217528 -0.309741
114 3 6.73628 2.33348 0.926649 0.00132286 -0.00329931 0.601402
186 3 5.38907 1.55567 3.07244 -0.019914 -0.0178355 -0.450537
210 3 6.73628 2.33348 5.21823 -0.259843 0.0266435 0.317727
306 3 6.65668 2.25434 9.46934 0.166942 -0.171594 -0.577643
189 3 6.73628 3.88919 3.07244 -0.0071378 -0.00658085 -0.457685
286 3 6.69767 3.91843 7.46757 -0.372594 -0.536568 -0.703713
21 1 6.07704 4.38058 12.0161 -0.302429 -0.171556 0.184265
121 3 5.38907 4.6671 0.926649 -0.00490092 0.00522616 0.623634
217 3 5.38907 4.6671 5.21823 0.104601 0.12751 0.247699
125 3 6.73628 7.00053 0.926649 -0.000503046 -0.00434829 0.6205
149 3 5.38907 6.22272 3.07244 -0.00279175 0.0262593 -0.497719
221 3 6.73628 7.00053 5.21823 0.0774619 -0.124483 0.110845
317 3 6.69573 7.01862 9.49713 0.174354 -0.0859249 -0.476146
153 3 6.73628 8.55624 3.07244 0.00284375 -0.0125991 -0.463893
249 3 6.71382 8.5295 7.38714 -0.16341 0.354847 0.403714
109 3 5.38907 9.33415 0.926649 -0.021687 0.00488051 0.61192
205 3 5.38907 9.33415 5.21823 0.0415528 0.0796003 0.041743
113 3 6.73628 11.6676 0.926649 -0.00181216 -0.00132319 0.605781
185 3 5.38907 10.8898 3.07244 0.027882 0.000538744 -0.446171
209 3 6.73628 11.6676 5.21823 -0.130066 0.0129278 0.124101
281 3 5.40247 10.8446 7.42454 -0.628319 0.702002 -0.333823
39 1 6.26487 12.5487 11.9611 0.226586 -0.185241 0.652095
79 2 6.61367 12.3133 12.877 -2.24706 -0.529638 -0.717766
190 3 6.73628 13.2233 3.07244 -0.00207635 -0.00895941 -0.425552
314 3 5.41313 13.9062 9.4832 -0.377412 0.985994 -0.1764
61 1 5.57085 13.7951 13.979 0.328403 -0.0470949 -0.318591
122 3 5.38907 14.0012 0.926649 0.00658659 0.00368547 0.607535
218 3 5.38907 14.0012 5.21823 0.135962 0.111058 0.221188
126 3 6.73628 16.3346 0.926649 0.0129489 -0.01051 0.618168
150 3 5.38907 15.5568 3.07244 -0.000503619 0.00513579 -0.475301
222 3 6.73628 16.3346 5.21823 0.165818 -0.134429 -0.052478
246 3 5.39719 15.6523 7.41965 0.0214773 -1.60608 -0.362474
154 3 6.73628 17.8903 3.07244 0.0285069 -0.0229012 -0.462188
302 3 5.4427 18.4638 9.4919 -0.688922 1.22161 -0.607769
33 1 5.83968 17.7779 11.825 0.116439 -0.317195 -0.51642
81 2 5.8436 18.2195 12.6921 0.838472 0.203768 0.981507
254 3 8.05215 1.49984 7.37855 -0.0841261 0.639354 0.321562
11 1 7.85507 1.39531 11.6605 -0.139214 -0.217952 -0.511947
291 3 7.86237 4.61464 9.59272 1.50436 0.220661 -0.273711
265 3 8.07318 6.15956 7.4355 -0.506464 0.668698 0.348767
324 3 8.06381 9.37533 9.46582 0.123383 -0.575046 0.316416
63 1 7.2608 9.34769 12.347 1.19678 0.669679 -0.435511
253 3 8.07668 10.925 7.39772 -0.322293 -0.595355 -0.818831
305 3 6.76277 11.6898 9.45013 -0.210989 -0.217198 0.30603
49 1 7.51464 12.5662 12.788 2.24648 0.817754 0.109905
292 3 8.01861 13.9143 9.53265 0.599326 0.515693 -0.218201
285 3 6.75428 13.2251 7.46613 -0.441009 -0.0173567 -1.31785
318 3 6.79227 16.2434 9.50716 -0.223289 0.256418 -0.103869
323 3 8.04011 18.5771 9.48802 0.181118 0.433352 -0.0319961
250 3 6.77525 17.8594 7.36994 -0.492037 0.0828815 0.0923624
37 1 6.80967 18.2002 12.9651 -1.12159 0.13895 -0.403664
131 3 8.08357 0 0.926649 -0.00351656 -0.00148644 0.605339
227 3 8.08357 0 5.21823 0.127293 -0.14774 0.001243
51 1 9.24984 1.14857 12.3213 -0.163494 -0.0643936 -0.00405645
159 3 8.08357 1.55571 3.07244 -0.0288701 -0.0180353 -0.443045
327 3 9.3997 2.31239 9.57012 0.0820553 -0.0144265 -1.23819
91 2 8.3258 1.41328 12.5142 0.460413 0.278828 0.726251
55 1 8.30082 3.46048 12.1733 0.384004 0.558837 0.217128
259 3 9.3172 3.86441 7.36538 1.01758 0.0355413 0.786162
89 2 8.08804 4.43063 12.0965 -0.500184 -0.42594 -0.351398
100 3 8.08357 4.66705 0.926649 -0.00245745 -0.0010072 0.61421
196 3 8.08357 4.66705 5.21823 -0.352789 -0.010205 -0.00857728
27 1 8.89305 4.99031 12.1662 -0.0141355 -0.147622 0.219437
172 3 8.08357 6.22276 3.07244 0.014926 -0.0149955 -0.46562
5 1 9.39542 7.7442 12.5589 -1.20807 1.38204 0.193921
272 3 9.35786 8.52029 7.37338 0.52595 -0.0201363 0.322269
132 3 8.08357 9.3341 0.926649 -0.00300341 0.00163205 0.621206
228 3 8.08357 9.3341 5.21823 -0.136998 0.0462182 0.0624385
84 2 8.21698 9.5711 12.0956 -1.20104 -2.25593 0.0712553
160 3 8.08357 10.8898 3.07244 -0.0209815 0.00529517 -0.452066
328 3 9.4176 11.6373 9.37294 0.108146 0.553517 0.779531
40 1 8.33688 10.5105 12.1817 -0.128525 1.3577 0.167095
99 3 8.08357 14.0011 0.926649 0.0063737 0.00288685 0.626798
195 3 8.08357 14.0011 5.21823 -0.257801 0.113306 -0.0527374
171 3 8.08357 15.5569 3.07244 0.0233211 -0.00738354 -0.468646
266 3 8.10256 15.5545 7.37138 -0.0474363 -0.272399 0.120059
67 2 9.30841 17.4869 15.3041 -0.109236 0.226312 3.42939
7 1 8.48636 17.3933 15.9109 1.43722 0.113893 -1.31682
179 3 10.7781 1.55567 3.07244 -0.00402445 -0.0157241 -0.482183
275 3 10.6997 1.54523 7.32353 0.106636 0.355449 0.715685
135 3 9.43086 2.33357 0.926649 -0.0025045 -0.00460781 0.638313
231 3 9.43086 2.33357 5.21823 -0.366842 0.0275558 -0.0432583
139 3 10.7781 4.667 0.926649 -0.00492345 0.00885172 0.607955
163 3 9.43086 3.88919 3.07244 -0.0178284 0.00610781 -0.49278
235 3 10.7781 4.667 5.21823 -0.282815 -0.0918459 0.0345726
148 3 10.7781 6.22272 3.07244 -0.0182611 -0.0140021 -0.503694
244 3 10.7076 6.20572 7.34831 0.553221 0.0305528 0.779029
312 3 9.43527 6.96071 9.56808 -0.204449 0.242903 -0.66622
65 2 9.79198 6.92102 12.3018 0.546824 -0.881853 -0.356147
120 3 9.43086 7.00062 0.926649 0.00134528 -0.000870363 0.610385
216 3 9.43086 7.00062 5.21823 -0.251856 -0.0964376 -0.0540418
1 1 10.7127 7.08251 12.5711 0.574627 -0.483223 -0.166681
104 3 10.7781 9.33405 0.926649 0.00190041 0.0104186 0.609962
176 3 9.43086 8.55624 3.07244 -0.0173086 -0.00666296 -0.484783
200 3 10.7781 9.33405 5.21823 -0.217074 -0.149196 -0.097944
180 3 10.7781 10.8898 3.07244 0.0155291 -0.0176138 -0.480504
276 3 10.7588 10.8929 7.33828 -0.454809 0.00252164 -0.388319
136 3 9.43086 11.6677 0.926649 0.0196537 0.0152366 0.621118
232 3 9.43086 11.6677 5.21823 -0.14538 0.0118539 -0.212771
140 3 10.7781 14.0011 0.926649 -0.00385061 0.00864486 0.58753
164 3 9.43086 13.2233 3.07244 -0.00575041 0.00347498 -0.502524
236 3 10.7781 14.0011 5.21823 0.133568 0.268474 -0.0891456
260 3 9.43158 13.2494 7.28986 -0.119157 -0.25399 0.915217
332 3 10.7332 13.9988 9.44485 0.120534 -0.0948791 0.338813
80 2 9.54148 13.8279 13.4621 -0.0954842 -0.991656 0.551917
32 1 10.3585 13.2798 13.374 -0.535859 0.854934 -0.38357
28 1 9.53949 14.626 12.9126 0.516829 0.114517 -0.368203
147 3 10.7781 15.5568 3.07244 0.00195612 -0.000482943 -0.449812
311 3 9.51844 16.2914 9.54082 -0.657797 0.157156 -0.109282
119 3 9.43086 16.3347 0.926649 0.00183482 0.000610996 0.599744
215 3 9.43086 16.3347 5.21823 0.192645 0.0954416 0.0776884
13 1 10.0232 17.4368 12.347 0.915497 1.14992 -1.19916
47 1 9.6901 17.0686 13.767 -0.651639 -0.362082 -0.612657
69 2 9.50161 16.8095 12.8181 -0.618717 -1.29352 1.03953
103 3 10.7781 18.6682 0.926649 -0.00340482 0.00206573 0.618825
175 3 9.43086 17.8903 3.07244 0.0107643 -0.024026 -0.429118
199 3 10.7781 18.6682 5.21823 -0.170682 -0.229499 -0.194058
271 3 9.44904 17.8205 7.48608 -0.299051 0.722176 -1.33422
22 1 10.0705 17.572 15.9687 -1.15441 -0.103038 -1.25112
74 2 11.3932 0.294661 12.6167 -0.204102 0.811849 0.129834
18 1 11.9258 1.12812 12.6066 -0.388286 -0.280451 0.0596221
299 3 12.036 2.23183 9.43276 0.405257 0.828554 0.363727
107 3 12.1254 2.33352 0.926649 -0.00593674 -0.00217463 0.613861
203 3 12.1254 2.33352 5.21823 -0.181304 0.024426 -0.156141
88 2 11.6847 3.32222 13.2273 -2.6062 -0.502176 -1.04765
183 3 12.1254 3.88924 3.07244 0.0111234 0.00975501 -0.444965
279 3 12.066 3.89033 7.38699 0.0886508 -0.0822812 0.196729
331 3 10.7959 4.54846 9.53361 -0.276943 0.513565 -0.648908
44 1 11.3395 3.83869 12.4494 0.09996 -0.636697 0.474934
144 3 12.1254 7.00057 0.926649 -0.00555401 -0.0112443 0.615053
240 3 12.1254 7.00057 5.21823 -0.377288 0.00787947 -0.189826
168 3 12.1254 8.55629 3.07244 0.063068 0.0333289 -0.533907
296 3 10.8119 9.32567 9.35752 -1.02955 -0.0822352 0.965906
75 2 11.7886 10.3843 12.94 0.464444 0.109745 0.427018
31 1 11.0921 9.93147 12.4418 -0.0486309 0.0747575 -0.587611
300 3 12.1005 11.6007 9.39928 -0.59055 0.775131 1.01088
108 3 12.1254 11.6676 0.926649 -0.0760599 -0.00511662 0.62217
204 3 12.1254 11.6676 5.21823 -0.154675 0.273825 -0.333262
184 3 12.1254 13.2233 3.07244 0.0712728 0.0172218 -0.533764
243 3 10.8049 15.5993 7.46872 -0.257344 -0.330498 -0.975064
35 1 11.7645 15.6062 12.8662 -0.738612 -0.168969 -0.0828021
143 3 12.1254 16.3347 0.926649 0.0200952 -0.0175511 0.602462
239 3 12.1254 16.3347 5.21823 -0.325262 0.372245 0.0415884
167 3 12.1254 17.8904 3.07244 0.00549582 0.010771 -0.446535
295 3 10.8026 18.6668 9.42917 -0.493607 -0.0539963 1.30623
263 3 12.118 18.0142 7.42023 0.11041 -2.34594 -0.65867
42 1 11.9756 18.2451 12.3417 0.586882 -0.392135 -0.17048
247 3 13.3483 1.49265 7.38639 1.84679 1.55389 -0.216421
303 3 13.4101 4.66225 9.49305 -0.0872222 0.0817278 -0.459589
48 1 12.5437 3.67964 13.2792 2.51229 0.86093 0.307503
283 3 13.4019 6.29183 7.33909 0.409919 -1.12135 0.668536
336 3 12.1964 7.07386 9.57109 -0.733384 -0.718955 -1.10428
72 2 13.0871 7.32221 12.8461 0.202357 -1.95633 1.23261
53 1 12.7856 7.8852 12.1578 -0.428972 1.61088 -1.53039
16 1 13.2829 7.84848 13.6266 0.186591 0.406827 0.224334
316 3 13.384 9.32752 9.52554 0.403823 0.0472977 -0.506435
264 3 12.1303 8.55453 7.3732 -0.674607 -0.404943 -0.211106
248 3 13.3207 10.9053 7.36212 2.35268 -0.142472 -0.157326
19 1 12.3644 10.8957 12.3162 -0.649254 -0.353612 0.0804432
2 1 12.8858 12.7737 13.5624 0.565921 -0.336332 -0.355037
280 3 12.182 13.3283 7.4241 -1.67799 -1.04522 -1.26338
15 1 13.4021 13.1495 12.1845 0.0289681 0.679752 -1.05614
304 3 13.2742 14.0305 9.4971 1.51885 0.202652 0.460009
335 3 12.1789 16.3298 9.53104 -0.0156211 0.520049 -0.558815
83 2 12.6731 15.9216 12.8951 0.816932 0.0610629 -0.379733
14 1 13.075 15.5966 12.0427 -0.388454 0.287486 0.363812
123 3 13.4726 4.67265e-05 0.926649 0.0105483 -0.0135418 0.587807
219 3 13.4726 4.67265e-05 5.21823 -0.211597 0.230348 -0.499436
315 3 13.5138 0.00218114 9.5042 -0.239288 -0.095968 -0.117588
127 3 14.8198 2.33348 0.926649 -0.00510427 0.00164689 0.601232
151 3 13.4726 1.55567 3.07244 -0.0111232 -0.00421619 -0.462291
223 3 14.8198 2.33348 5.21823 -0.223183 -0.00628157 0.123109
155 3 14.8198 3.88919 3.07244 -0.00801171 0.00381776 -0.491197
251 3 14.7791 3.92558 7.35127 -0.216881 -0.479148 0.0585527
111 3 13.4726 4.6671 0.926649 0.000876184 0.0135964 0.613963
207 3 13.4726 4.6671 5.21823 -0.244963 0.0552108 -0.0297301
23 1 13.9012 5.73157 12.2982 0.214214 -1.12922 0.257995
76 2 14.0572 4.72892 12.3381 -1.08908 1.36559 0.420387
115 3 14.8198 7.00053 0.926649 -0.0035571 -0.00223148 0.604864
187 3 13.4726 6.22272 3.07244 -0.0123257 0.0292989 -0.510911
211 3 14.8198 7.00053 5.21823 -0.0897728 -0.00625906 -0.218559
307 3 14.7632 7.02474 9.42784 0.102072 -0.154198 0.089525
192 3 14.8198 8.55624 3.07244 -0.00986754 0.00912209 -0.46346
287 3 14.7315 8.58302 7.30745 0.926457 0.0166236 0.757525
124 3 13.4726 9.33415 0.926649 -0.0793904 -0.0607187 0.679202
220 3 13.4726 9.33415 5.21823 -0.262198 0.193662 -0.402137
54 1 14.5556 10.1031 12.9191 0.582085 -0.275064 0.0352843
128 3 14.8198 11.6676 0.926649 -0.0217347 -0.143345 0.385254
152 3 13.4726 10.8898 3.07244 -0.028406 0.0487834 -0.508478
224 3 14.8198 11.6676 5.21823 -0.139433 0.134187 0.201911
25 1 14.0445 11.1761 23.9241 -0.567165 0.484313 -0.116237
320 3 14.6237 11.6971 9.50831 0.718835 0.178521 -0.518881
71 2 13.5219 12.4795 12.8599 -0.304962 -0.294131 1.35721
156 3 14.8198 13.2233 3.07244 -0.0515182 -0.0676665 -0.575988
252 3 14.6754 13.2764 7.36879 1.83752 -0.675516 0.244212
112 3 13.4726 14.0012 0.926649 -0.192917 0.0587248 0.684839
208 3 13.4726 14.0012 5.21823 -0.220825 -0.0239313 -0.621355
116 3 14.8198 16.3346 0.926649 -0.11436 0.211878 0.721847
188 3 13.4726 15.5568 3.07244 0.00940976 0.00541971 -0.542175
212 3 14.8198 16.3346 5.21823 0.444578 0.370239 -0.691918
284 3 13.5411 15.6027 7.23204 -1.21307 -0.00633937 1.74472
29 1 14.7077 16.1271 13.9485 -0.194447 -0.263623 -0.471557
191 3 14.8198 17.8903 3.07244 0.0321266 0.0251059 -0.528828
290 3 16.1624 0.00358982 9.38202 0.00644144 -0.310282 1.60434
267 3 16.11 1.5066 7.4298 0.403358 1.40677 -1.5749
319 3 14.8831 2.37148 9.45515 -0.797237 -0.254652 0.0779382
321 3 16.149 4.63293 9.39561 0.131171 0.220957 0.73781
20 1 14.8621 4.5719 11.8449 0.884175 -0.148591 -0.634582
255 3 16.1168 6.18292 7.3707 0.0651876 0.971789 -0.31655
289 3 15.9844 9.37813 9.40531 0.700087 -0.347674 0.217693
90 2 15.4264 9.68651 12.6806 -1.08477 0.752956 0.0597418
50 1 15.2284 9.43654 11.7363 0.165507 -0.16187 0.123873
268 3 16.097 11.009 7.49855 -0.106231 -1.20615 -1.63968
66 2 15.0062 11.1577 23.9224 0.608533 -1.38721 0.482574
6 1 15.3922 12.0286 23.8294 -0.0488428 1.10946 -0.125534
322 3 16.1402 14.0851 9.39805 -0.0153884 -0.45479 0.645025
3 1 15.867 15.0481 24.3327 1.10366 -1.32103 -0.512792
308 3 14.8492 16.2978 9.39901 -0.23961 0.467496 0.217784
77 2 15.5449 15.9263 13.4973 0.643237 -0.223539 -0.348831
12 1 15.3583 15.4439 12.6528 -0.296881 0.567777 0.609908
288 3 14.8477 17.9935 7.28609 -1.12726 -1.69009 0.846474
