ITEM: TIMESTEP
18404000
ITEM: NUMBER OF ATOMS
336
ITEM: BOX BOUNDS pp pp pp
0.0000000000000000e+00 1.6167135238600000e+01
0.0000000000000000e+00 1.8668199539200000e+01
0.0000000000000000e+00 2.5747400283800001e+01
ITEM: ATOMS id type x y z
117 3 1.25762 1.98125 0.932224
141 3 3.97971 1.90864 1.01406
145 3 2.61276 1.28319 3.04722
165 3 4.03549 3.54583 3.05495
173 3 1.23077 3.52449 3.05265
101 3 2.65783 4.27092 1.05015
186 3 5.35208 1.17112 3.09141
121 3 5.34822 4.26107 0.946839
213 3 1.26974 2.01145 5.15622
237 3 3.95371 2.00056 5.27005
197 3 2.61864 4.25135 5.04876
217 3 5.21816 4.45255 5.22111
241 3 2.50941 1.22922 7.32199
282 3 5.35741 1.11623 7.38803
261 3 3.82456 3.61903 7.37678
269 3 1.21633 3.58304 7.42613
309 3 1.2792 2.04551 9.48307
333 3 4.04469 2.03796 9.40373
293 3 2.56269 4.36897 9.42974
313 3 5.2547 4.37382 9.44323
58 1 4.88662 1.62854 12.2783
77 2 4.10288 2.05084 12.595
2 1 3.03607 0.824476 12.2329
11 1 4.00045 3.15778 12.5338
17 1 0.214804 4.49082 12.6754
105 3 3.88743 6.61471 0.945406
133 3 1.27032 6.66941 0.901053
161 3 1.2563 8.1702 3.06555
177 3 2.58776 5.876 2.99012
181 3 4.00838 8.15737 3.00533
137 3 2.61572 8.97432 0.992709
109 3 5.32118 8.96675 0.920262
149 3 5.27909 5.93049 3.0332
98 3 0.0269036 8.89364 0.976994
201 3 3.99057 6.77278 5.20161
229 3 1.2981 6.62018 5.19435
233 3 2.59947 9.03634 5.14619
245 3 5.33082 5.85422 7.32162
273 3 2.59027 5.85891 7.26638
257 3 1.32903 8.14883 7.30796
277 3 4.03248 8.33132 7.30578
205 3 5.35427 8.97889 5.1033
297 3 3.96393 6.64174 9.47843
325 3 1.36904 6.65851 9.40432
329 3 2.58777 8.95211 9.50599
301 3 5.26256 9.04947 9.52835
40 1 5.06944 7.56666 10.5954
55 1 3.54176 8.41524 11.8419
73 2 0.953107 5.21475 12.5536
56 1 3.1774 7.47388 12.8791
78 2 3.79565 5.33762 12.4964
45 1 2.87445 5.37026 12.9824
13 1 3.53753 5.30451 11.4323
92 2 3.40434 8.40019 12.7439
32 1 1.28763 5.04892 11.5342
118 3 1.33005 11.2663 0.961166
142 3 3.97329 11.4001 0.941158
146 3 2.58723 10.525 2.94576
166 3 3.99506 12.9176 3.04426
174 3 1.27198 12.8546 3.00802
102 3 2.62832 13.6404 0.950034
122 3 5.31592 13.6052 0.945386
185 3 5.27182 10.551 3.01247
214 3 1.25898 11.3829 5.24472
238 3 3.94828 11.3534 5.14798
198 3 2.68461 13.6606 5.23684
242 3 2.68085 10.5308 7.29746
262 3 4.03075 12.8889 7.28735
270 3 1.36923 12.9225 7.33393
314 3 5.29644 13.7704 9.45798
334 3 3.86772 11.3183 9.33969
310 3 1.27634 11.3064 9.47388
294 3 2.56443 13.7481 9.434
281 3 5.36758 10.6056 7.40087
31 1 0.706977 11.4421 13.8267
5 1 2.28922 9.75995 12.9408
62 1 1.79022 10.3898 11.6874
16 1 3.55168 11.7346 12.615
94 2 1.82764 10.5988 12.6949
1 1 3.93561 12.8476 11.6375
65 2 4.28963 12.3458 12.4957
34 1 1.83186 13.6963 13.413
50 1 1.45827 13.9185 11.8246
106 3 4.04092 15.9815 0.954146
134 3 1.20918 16.0327 0.990613
162 3 1.24039 17.6151 3.0684
178 3 2.58423 15.2025 2.9636
182 3 3.96088 17.602 3.04886
138 3 2.64974 18.3037 0.940602
110 3 5.35537 18.3038 0.979115
202 3 3.97792 15.9863 5.12411
230 3 1.35252 16.0162 5.22582
234 3 2.64063 18.333 5.1872
206 3 5.35774 18.2308 5.17812
274 3 2.58644 15.2342 7.32704
246 3 5.33111 15.1628 7.37716
302 3 5.36259 18.4088 9.41992
278 3 3.89532 17.5317 7.50531
258 3 1.26204 17.5716 7.43364
298 3 3.93257 15.9248 9.51806
326 3 1.17905 16.0197 9.39423
330 3 2.59646 18.3227 9.54361
36 1 3.13726 17.6991 12.1721
90 2 1.86219 14.4681 12.6339
70 2 3.95046 16.0879 11.8398
66 2 2.59175 18.5713 11.9226
64 1 5.01881 16.0717 12.0732
6 1 3.51098 15.345 11.9364
26 1 0.612088 18.5713 11.8837
114 3 6.64304 1.93853 0.931433
135 3 9.31962 2.02958 0.940208
159 3 8.01305 1.16733 3.02292
163 3 9.31857 3.50437 3.14428
189 3 6.59352 3.42989 3.10796
100 3 8.06771 4.37119 0.994811
179 3 10.6962 1.19082 2.95689
139 3 10.6697 4.19995 1.03305
210 3 6.63764 1.94734 5.23011
231 3 9.40643 1.98387 5.25356
196 3 8.01743 4.27323 5.22276
235 3 10.7004 4.28189 5.23407
254 3 7.99365 1.22183 7.30475
286 3 6.6338 3.46985 7.37772
259 3 9.37496 3.5202 7.43738
275 3 10.7199 1.24973 7.37705
327 3 9.37246 2.00445 9.54104
306 3 6.73233 2.00746 9.46838
291 3 7.97573 4.338 9.4838
331 3 10.5706 4.40654 9.47615
47 1 7.93226 4.31749 12.7541
39 1 8.60316 3.20192 11.7419
33 1 7.10522 1.16217 11.7866
81 2 6.87857 1.21294 12.7103
37 1 7.34289 1.92413 13.05
83 2 8.52801 3.53247 12.7803
20 1 10.3901 4.24368 12.6532
120 3 9.276 6.59605 0.917761
125 3 6.66357 6.60167 0.958219
153 3 6.75937 8.22208 3.0254
172 3 7.9539 5.83408 3.08275
176 3 9.39786 8.23334 3.07276
132 3 8.00565 9.01058 0.881918
148 3 10.7096 5.85617 3.04239
104 3 10.7098 9.07368 1.03036
200 3 10.7346 9.0075 5.27276
216 3 9.29506 6.62533 5.18447
221 3 6.66448 6.71686 5.26441
228 3 8.01734 8.99566 5.32156
244 3 10.6306 5.88067 7.35089
272 3 9.36264 8.1431 7.32891
296 3 10.5328 8.99599 9.49425
265 3 8.021 5.7746 7.40992
249 3 6.65833 8.20969 7.37006
312 3 9.2886 6.6659 9.4137
317 3 6.59887 6.69398 9.37786
324 3 7.89361 8.99562 9.48167
74 2 10.4374 8.85589 11.7228
12 1 6.63568 5.56905 11.6549
87 2 7.95794 8.92727 11.6078
72 2 6.61267 6.00034 12.5645
60 1 7.51484 8.21917 12.0947
21 1 5.7028 6.00327 12.7211
8 1 8.91775 8.97396 11.7697
113 3 6.62751 11.3784 0.903369
136 3 9.35293 11.3959 0.991491
160 3 8.05274 10.5071 3.05838
164 3 9.38562 12.8658 3.01055
190 3 6.66586 12.8743 2.98608
99 3 7.98916 13.6672 0.876433
140 3 10.7072 13.6687 0.894202
180 3 10.7291 10.5666 3.11384
236 3 10.6835 13.6129 5.1194
276 3 10.7327 10.5488 7.32887
209 3 6.63442 11.3033 5.2478
232 3 9.37332 11.3464 5.18451
195 3 8.05447 13.5988 5.1571
260 3 9.28646 12.7614 7.34541
218 3 5.45095 13.6186 5.19382
253 3 7.9434 10.5618 7.38315
285 3 6.68976 12.8898 7.4205
328 3 9.22964 11.3014 9.42023
305 3 6.57586 11.3948 9.50607
292 3 8.16295 13.6066 9.50306
332 3 10.6642 13.59 9.35719
43 1 7.64593 12.5915 12.0207
82 2 6.59636 11.2778 11.836
30 1 6.81611 10.424 12.0541
10 1 9.1483 13.3998 11.67
54 1 5.54664 11.5732 11.792
89 2 8.10981 13.4724 11.6957
85 2 10.7201 13.5305 11.7181
119 3 9.32017 15.9714 0.879827
126 3 6.70737 16.0193 0.847776
154 3 6.69793 17.5288 2.9969
171 3 8.02429 15.1858 2.98903
175 3 9.34676 17.5505 3.0029
131 3 8.01455 18.2415 0.93901
103 3 10.647 18.2981 0.908212
147 3 10.7384 15.2151 3.01189
150 3 5.39383 15.2203 2.99858
215 3 9.39556 15.9502 5.21315
222 3 6.77781 15.9318 5.21791
227 3 8.05556 18.33 5.1878
199 3 10.6819 18.2394 5.30458
266 3 8.03024 15.1358 7.24023
243 3 10.6556 15.2343 7.36894
271 3 9.28235 17.5093 7.38072
250 3 6.63441 17.5168 7.42256
311 3 9.3657 15.956 9.47007
318 3 6.71107 15.913 9.48103
323 3 7.94789 18.3082 9.48741
295 3 10.7282 18.3158 9.41959
52 1 7.82101 18.2584 12.5664
51 1 9.13494 17.7089 11.7509
53 1 6.92075 14.9805 11.962
91 2 8.56192 17.5323 12.4959
96 2 6.53118 15.8778 11.7985
27 1 7.24157 16.4406 11.9052
46 1 10.4218 18.2906 13.1283
107 3 12.0669 2.01997 1.00733
127 3 14.8115 2.02362 1.06414
151 3 13.4214 1.15685 3.05033
155 3 14.6561 3.53356 3.06189
183 3 12.027 3.52112 3.13482
111 3 13.4106 4.30548 1.08811
129 3 16.1128 4.23435 0.983251
169 3 15.996 1.15297 3.12644
203 3 12.0307 1.93135 5.16951
223 3 14.7761 2.07881 5.32113
207 3 13.4322 4.30503 5.23272
225 3 16.1319 4.36115 5.20902
251 3 14.7056 3.56181 7.40611
321 3 16.0122 4.29767 9.6474
279 3 12.0066 3.45843 7.43359
247 3 13.4152 1.22809 7.36674
299 3 12.0344 1.94093 9.42469
319 3 14.7311 2.09579 9.4745
303 3 13.3923 4.20387 9.50367
267 3 16.127 1.24345 7.43799
29 1 14.8595 2.78176 11.7045
68 2 12.6938 2.11387 14.0521
7 1 15.5917 0.786346 12.2387
80 2 15.1222 2.42361 12.7191
57 1 11.9869 3.63078 12.9207
24 1 11.9673 1.37702 13.766
28 1 14.1245 2.30697 13.0862
76 2 11.275 4.12707 12.3718
42 1 11.1105 0.512527 11.9759
38 1 12.7598 2.0821 15.025
115 3 14.7276 6.60109 0.973269
144 3 12.0565 6.72176 0.977005
168 3 11.999 8.24889 3.04446
187 3 13.3489 5.86986 3.04825
192 3 14.7324 8.14986 3.09559
124 3 13.4514 9.01132 0.963518
157 3 16.0549 5.85454 3.04065
211 3 14.6979 6.67507 5.17667
240 3 11.9506 6.65336 5.25312
220 3 13.3624 8.97981 5.22244
194 3 16.0548 8.95629 5.27505
255 3 16.0735 5.89725 7.3492
287 3 14.6761 8.1885 7.35331
283 3 13.3193 5.83275 7.41329
264 3 12.005 8.14308 7.51674
289 3 16.0314 9.02042 9.40819
336 3 12.0161 6.64401 9.53737
307 3 14.7388 6.64251 9.46498
316 3 13.4426 9.0268 9.36812
18 1 10.8291 8.12478 11.9831
4 1 15.3064 6.08534 12.3192
84 2 14.7294 6.8696 11.9489
14 1 15.0349 7.6941 12.2545
48 1 12.7688 6.7197 12.1505
88 2 11.9482 6.71039 11.7792
44 1 11.4774 5.8508 11.8854
108 3 12.116 11.2393 0.868841
128 3 14.7529 11.2877 0.976698
152 3 13.467 10.5739 2.98919
156 3 14.8052 12.8742 3.0343
184 3 12.1317 12.9177 3.03632
112 3 13.3442 13.5983 0.921413
170 3 16.1448 10.5342 3.05949
130 3 16.0197 13.6741 0.907043
204 3 12.0468 11.2527 5.21401
224 3 14.8063 11.3601 5.15643
208 3 13.4249 13.6616 5.19749
252 3 14.7771 12.8928 7.22967
280 3 12.0564 12.8686 7.3051
248 3 13.4015 10.4465 7.26667
268 3 16.0292 10.5186 7.26516
226 3 16.1364 13.6838 5.25225
322 3 16.0988 13.7271 9.3948
320 3 14.7588 11.4483 9.29197
300 3 12.0035 11.3571 9.41799
304 3 13.4833 13.6643 9.38868
61 1 14.1635 12.8843 12.0697
79 2 15.9683 11.6875 14.2996
35 1 11.2222 10.1721 11.8226
41 1 14.547 12.7875 13.3556
9 1 11.378 12.9185 11.5715
69 2 11.6847 11.0284 11.7508
22 1 12.6596 10.7352 12.0163
93 2 13.9608 13.3517 12.8325
23 1 14.7208 9.97058 11.3208
19 1 14.8314 10.8244 12.6331
75 2 14.2911 10.1855 12.2166
63 1 15.8243 11.0501 14.997
116 3 14.8294 16.026 0.952272
143 3 12.0533 16.124 0.898411
167 3 12.0651 17.5374 3.06702
188 3 13.433 15.2338 3.07241
191 3 14.83 17.5061 2.99965
123 3 13.4042 18.2467 0.903362
97 3 16.0787 18.3588 0.908438
158 3 16.0716 15.154 3.02214
193 3 16.0536 18.2879 5.23877
212 3 14.7109 15.9786 5.20592
239 3 12.0122 15.9351 5.23239
219 3 13.5162 18.2822 5.15694
284 3 13.4346 15.2123 7.34751
256 3 16.1315 15.2612 7.33412
263 3 12.0983 17.5745 7.38439
288 3 14.7387 17.5196 7.49022
308 3 14.7308 15.9258 9.47168
335 3 12.0651 16.0272 9.46706
315 3 13.4116 18.3789 9.49938
290 3 16.1437 18.3416 9.55044
67 2 15.8966 18.6164 11.9346
86 2 11.3632 18.6046 12.7454
95 2 11.9598 15.8629 12.0166
49 1 11.1764 14.3133 11.9188
59 1 15.1024 15.3845 12.3466
3 1 15.1982 17.0543 12.081
25 1 12.9568 15.8106 12.0947
15 1 11.6581 16.6957 12.2947
71 2 14.715 16.2446 11.8068
