ITEM: TIMESTEP
18404000
ITEM: NUMBER OF ATOMS
336
ITEM: BOX BOUNDS pp pp pp
0.0000000000000000e+00 1.6167135238600000e+01
0.0000000000000000e+00 1.8668199539200000e+01
0.0000000000000000e+00 2.5747400283800001e+01
ITEM: ATOMS id type x y z
117 3 1.2538 1.9854 0.927524
141 3 3.97463 1.92013 1.01625
145 3 2.62548 1.27626 3.05047
165 3 4.02701 3.53584 3.06047
173 3 1.22171 3.51129 3.04438
101 3 2.66458 4.25245 1.03882
186 3 5.34962 1.17266 3.07279
121 3 5.34091 4.25551 0.941459
213 3 1.25915 2.0168 5.14782
237 3 3.94794 1.98666 5.26675
197 3 2.60108 4.26225 5.06136
217 3 5.21521 4.46711 5.21834
241 3 2.5122 1.24012 7.32093
282 3 5.37503 1.10986 7.37455
261 3 3.84456 3.62802 7.37534
269 3 1.2126 3.56972 7.42611
309 3 1.2851 2.04571 9.49541
333 3 4.05486 2.02973 9.39883
293 3 2.56384 4.37751 9.41958
313 3 5.25869 4.37043 9.42842
11 1 4.05904 3.04534 12.5303
77 2 4.10067 2.07278 12.6202
58 1 4.87061 1.84465 12.2466
2 1 3.00363 0.980752 12.2772
17 1 0.237708 4.57717 12.658
105 3 3.88905 6.61493 0.947897
133 3 1.26619 6.675 0.901126
161 3 1.25535 8.1794 3.06158
177 3 2.58889 5.86195 2.97059
181 3 4.00857 8.15628 3.01282
137 3 2.60756 8.96541 0.994013
109 3 5.31637 8.96995 0.920978
149 3 5.26877 5.93922 3.05389
98 3 0.00978997 8.8911 0.984017
201 3 3.9942 6.75966 5.1863
229 3 1.29626 6.63333 5.18934
233 3 2.59714 9.03585 5.14025
273 3 2.59839 5.86169 7.27211
257 3 1.34399 8.15923 7.31485
277 3 4.0337 8.31978 7.31227
245 3 5.33403 5.84993 7.34429
205 3 5.35466 8.98172 5.10664
329 3 2.57043 8.96119 9.50092
297 3 3.98868 6.64283 9.48472
325 3 1.36764 6.65173 9.38926
301 3 5.27536 9.06338 9.50879
40 1 4.92519 7.55796 10.584
56 1 3.16323 7.49904 12.7512
55 1 3.60983 8.55674 11.8996
73 2 0.915642 5.17043 12.5723
45 1 2.80977 5.35217 12.9708
13 1 3.48661 5.25749 11.4607
78 2 3.79948 5.28866 12.4839
92 2 3.42175 8.39041 12.7631
32 1 1.19133 5.20614 11.628
118 3 1.33273 11.2746 0.95602
142 3 3.98053 11.3954 0.955031
146 3 2.58117 10.5324 2.94819
166 3 3.99768 12.9092 3.0416
174 3 1.28021 12.8614 3.01014
102 3 2.63551 13.6199 0.959194
122 3 5.30012 13.608 0.93849
185 3 5.26954 10.537 3.00367
214 3 1.27019 11.3773 5.23589
238 3 3.9329 11.3465 5.13803
198 3 2.68544 13.6697 5.22153
242 3 2.6743 10.5388 7.28756
262 3 4.03845 12.8902 7.29415
270 3 1.35336 12.918 7.34213
334 3 3.84726 11.3162 9.33773
310 3 1.28861 11.2835 9.46193
294 3 2.56279 13.7443 9.43385
314 3 5.2977 13.7817 9.45283
281 3 5.35857 10.6183 7.40328
5 1 2.27853 9.77826 12.9527
31 1 0.810775 11.2809 13.7543
65 2 4.26414 12.3667 12.4863
50 1 1.52045 13.937 11.8077
62 1 1.7444 10.4305 11.7847
94 2 1.8511 10.5844 12.694
1 1 3.82765 12.7585 11.6452
16 1 3.53752 11.7119 12.6011
34 1 1.84832 13.6746 13.3913
106 3 4.041 15.998 0.951206
134 3 1.19659 16.0362 0.974201
162 3 1.23332 17.6305 3.0654
178 3 2.59931 15.2205 2.96047
182 3 3.94588 17.6105 3.0582
138 3 2.64763 18.3037 0.93915
110 3 5.35731 18.3036 0.973811
150 3 5.38518 15.2147 3.01665
202 3 3.99235 15.9763 5.13546
230 3 1.34846 16.0312 5.23669
234 3 2.63465 18.318 5.18906
206 3 5.36542 18.2304 5.17191
274 3 2.57856 15.2261 7.33024
302 3 5.364 18.4 9.41235
278 3 3.89422 17.5352 7.48872
258 3 1.263 17.5792 7.44367
326 3 1.17808 16.0197 9.38986
298 3 3.93608 15.9293 9.50071
330 3 2.58739 18.328 9.54816
246 3 5.33992 15.1842 7.38019
6 1 3.42151 15.1984 11.8127
64 1 4.9829 15.9492 12.0035
66 2 2.619 18.5535 11.934
70 2 3.95531 16.1045 11.8266
36 1 3.15837 17.7743 12.4124
90 2 1.8628 14.469 12.6403
26 1 0.645451 18.5941 11.7865
114 3 6.64088 1.93407 0.937553
135 3 9.33402 2.02744 0.959856
159 3 8.00737 1.17773 3.02458
163 3 9.31215 3.49984 3.13104
189 3 6.58203 3.44253 3.08451
100 3 8.06758 4.37162 0.98934
179 3 10.6831 1.18869 2.9479
139 3 10.6786 4.20439 1.0379
210 3 6.65177 1.9461 5.22922
231 3 9.39036 1.98604 5.24515
196 3 8.01088 4.27756 5.22558
254 3 7.99126 1.2213 7.29256
235 3 10.7001 4.28191 5.22707
331 3 10.5652 4.42108 9.45925
286 3 6.62595 3.47404 7.3699
259 3 9.36575 3.52705 7.44138
275 3 10.7213 1.24693 7.38182
327 3 9.36864 2.01246 9.53864
306 3 6.72932 2.01854 9.47088
291 3 7.96256 4.33878 9.49599
47 1 8.00047 4.42804 12.6501
39 1 8.56406 3.09298 11.8893
81 2 6.90702 1.20588 12.7226
20 1 10.3203 4.19482 12.7442
37 1 7.38279 1.97709 13.0246
83 2 8.51939 3.47654 12.7989
33 1 6.98743 1.10925 11.7526
120 3 9.26207 6.60133 0.915331
125 3 6.66745 6.6199 0.957086
153 3 6.738 8.22196 3.0213
172 3 7.93889 5.83573 3.07263
176 3 9.39709 8.24471 3.06649
132 3 8.00155 9.01542 0.88677
148 3 10.7101 5.84121 3.04307
104 3 10.6899 9.07139 1.03004
200 3 10.7262 8.997 5.28106
216 3 9.29665 6.61301 5.19742
221 3 6.67516 6.7161 5.27097
228 3 8.03165 9.00028 5.3164
272 3 9.35343 8.13744 7.34037
244 3 10.6362 5.87774 7.34487
296 3 10.5392 8.99202 9.48961
265 3 8.02965 5.76846 7.41623
249 3 6.64727 8.21979 7.37099
312 3 9.29549 6.68147 9.42508
317 3 6.58766 6.68372 9.37356
324 3 7.88892 8.9806 9.50225
8 1 8.96395 8.80297 11.6725
21 1 5.70496 6.05997 12.6681
60 1 7.51919 8.14746 12.1206
72 2 6.66748 5.98655 12.5862
12 1 6.56306 5.53159 11.7021
74 2 10.4261 8.87905 11.6895
87 2 7.96226 8.96358 11.6171
113 3 6.63781 11.3807 0.916403
136 3 9.36111 11.3954 0.993139
160 3 8.0446 10.4901 3.05774
164 3 9.38545 12.8624 3.0091
190 3 6.67789 12.872 2.98703
99 3 8.00253 13.6706 0.877811
140 3 10.7188 13.6642 0.896601
180 3 10.7381 10.5806 3.0998
209 3 6.63525 11.299 5.24647
232 3 9.38482 11.3501 5.20229
195 3 8.05675 13.5744 5.14355
260 3 9.30511 12.767 7.34109
236 3 10.7001 13.6149 5.118
276 3 10.7373 10.5586 7.32409
218 3 5.4552 13.6224 5.18893
253 3 7.94803 10.5508 7.37371
285 3 6.68128 12.8977 7.42626
305 3 6.58207 11.4006 9.51013
328 3 9.22424 11.294 9.43121
292 3 8.13903 13.6229 9.50546
332 3 10.6529 13.6057 9.34732
82 2 6.60624 11.2556 11.8499
85 2 10.7593 13.5477 11.6925
54 1 5.55923 11.6101 11.9264
43 1 7.65026 12.6885 11.8518
30 1 6.80303 10.338 12.1308
10 1 9.20974 13.3306 11.8282
89 2 8.13849 13.4662 11.6851
119 3 9.32896 15.9712 0.889405
126 3 6.68689 16.0131 0.836874
154 3 6.70007 17.5327 2.9955
171 3 8.03386 15.1794 2.97527
175 3 9.37398 17.5552 3.00948
131 3 8.0232 18.2437 0.932024
103 3 10.6683 18.2905 0.912797
147 3 10.7315 15.2094 3.00938
243 3 10.6607 15.2436 7.35369
215 3 9.39256 15.941 5.20979
222 3 6.76856 15.9314 5.21736
227 3 8.05509 18.3077 5.18711
199 3 10.6726 18.232 5.30198
266 3 8.01776 15.1383 7.22141
271 3 9.27919 17.518 7.38153
250 3 6.64634 17.5114 7.43334
311 3 9.3805 15.9683 9.45611
318 3 6.70486 15.9245 9.4727
323 3 7.9502 18.3106 9.49144
295 3 10.73 18.3169 9.42089
52 1 8.08012 18.4146 12.4281
96 2 6.53119 15.9041 11.7856
91 2 8.58657 17.5401 12.5104
27 1 7.20678 16.5403 12.0009
53 1 6.8718 15.0214 11.9899
51 1 9.14872 17.6287 11.7432
46 1 10.5195 18.2259 13.0628
107 3 12.0672 2.02157 1.0175
127 3 14.804 2.03296 1.07617
151 3 13.4219 1.15035 3.04326
155 3 14.6407 3.52537 3.06268
183 3 12.0135 3.51701 3.12405
111 3 13.4122 4.31734 1.08074
129 3 16.1113 4.22852 0.992111
169 3 16.0088 1.15837 3.13518
225 3 16.1039 4.3729 5.22068
203 3 12.0297 1.9254 5.17252
223 3 14.7873 2.08356 5.3084
207 3 13.422 4.30748 5.22961
247 3 13.4043 1.23666 7.35497
251 3 14.7012 3.56059 7.41157
267 3 16.126 1.24017 7.43403
279 3 12.0011 3.4763 7.43268
299 3 12.0296 1.9392 9.42488
319 3 14.7368 2.09948 9.49119
303 3 13.3756 4.20812 9.50788
321 3 16.0029 4.30131 9.63472
57 1 11.9562 3.5989 12.9945
29 1 14.8947 2.81127 11.9993
42 1 11.2203 0.350118 11.9098
28 1 14.1477 2.21972 12.8554
24 1 11.9428 1.38068 13.7348
68 2 12.6547 2.11715 14.0055
80 2 15.1298 2.39517 12.7215
7 1 15.6711 0.838518 12.1068
76 2 11.297 4.13018 12.3401
38 1 12.6866 2.09276 15.1044
115 3 14.7367 6.60252 0.975435
144 3 12.0623 6.72508 0.983347
168 3 11.9938 8.2397 3.03657
187 3 13.3572 5.88 3.04964
192 3 14.7183 8.16144 3.08995
124 3 13.4494 9.02587 0.948394
157 3 16.0565 5.85399 3.03742
211 3 14.6885 6.67545 5.18687
240 3 11.957 6.65101 5.2298
220 3 13.3597 8.99143 5.21688
255 3 16.07 5.89135 7.35386
287 3 14.6848 8.19113 7.34011
194 3 16.0527 8.95481 5.26491
283 3 13.3212 5.83858 7.41668
264 3 12.0108 8.13405 7.52735
289 3 16.0197 9.03828 9.40203
307 3 14.7422 6.62968 9.45927
336 3 12.0174 6.62989 9.51911
316 3 13.4395 9.03215 9.36159
18 1 10.957 8.05617 11.9521
14 1 15.0716 7.87787 12.2569
88 2 11.9198 6.68279 11.7554
4 1 15.4223 6.18481 12.2601
44 1 11.6768 5.7262 11.9228
84 2 14.7244 6.8753 11.9435
48 1 12.7344 6.89225 12.1149
108 3 12.123 11.2451 0.87745
128 3 14.7661 11.2813 0.988339
152 3 13.4536 10.5694 2.98659
156 3 14.7883 12.8687 3.03794
184 3 12.1304 12.913 3.04015
112 3 13.3645 13.6083 0.91274
170 3 16.1244 10.5304 3.06123
130 3 16.0094 13.6685 0.905145
204 3 12.0435 11.2618 5.21451
224 3 14.7966 11.3527 5.18312
208 3 13.428 13.6545 5.21435
252 3 14.7686 12.8948 7.23665
280 3 12.0586 12.8842 7.29697
226 3 16.1401 13.6808 5.24903
248 3 13.4024 10.4486 7.27432
268 3 16.0249 10.524 7.26005
322 3 16.1244 13.7388 9.39857
300 3 12.001 11.3706 9.41892
320 3 14.7628 11.4421 9.28664
304 3 13.4999 13.6558 9.38449
41 1 14.6952 12.896 13.3959
93 2 13.9645 13.3643 12.891
35 1 11.1434 10.2405 11.7984
61 1 14.031 12.8835 12.019
9 1 11.3715 12.8033 11.6723
69 2 11.6976 11.0721 11.7584
79 2 16.0562 11.7141 14.2773
22 1 12.7346 10.7356 11.9244
19 1 14.924 10.6677 12.7118
23 1 14.7281 9.9761 11.3643
75 2 14.3014 10.211 12.246
63 1 15.7857 11.2482 15.0531
116 3 14.8164 16.0069 0.937324
143 3 12.048 16.1211 0.897224
167 3 12.0694 17.5474 3.07285
188 3 13.4381 15.2302 3.0685
191 3 14.8205 17.5141 3.00251
123 3 13.4087 18.2636 0.897382
97 3 16.0786 18.3604 0.922505
158 3 16.062 15.1636 3.02111
212 3 14.7233 15.9641 5.21212
239 3 12.0054 15.9386 5.23112
219 3 13.5194 18.2804 5.1427
284 3 13.4247 15.2118 7.34414
256 3 16.1242 15.2476 7.33678
193 3 16.0404 18.2947 5.23381
263 3 12.0954 17.5788 7.38358
288 3 14.743 17.5215 7.47709
308 3 14.7147 15.923 9.47556
335 3 12.0589 16.0303 9.45476
315 3 13.425 18.387 9.47996
290 3 16.1323 18.3287 9.55677
67 2 15.8729 18.6496 11.9911
86 2 11.3426 18.5984 12.7172
71 2 14.71 16.2584 11.7887
95 2 11.9602 15.8743 12.018
25 1 12.9891 15.7727 12.2724
59 1 15.0348 15.3987 12.3428
15 1 11.8136 16.8185 12.4687
3 1 15.2116 17.0307 12.0758
49 1 11.1517 14.3731 11.8778
