ITEM: TIMESTEP
18404000
ITEM: NUMBER OF ATOMS
336
ITEM: BOX BOUNDS pp pp pp
0.0000000000000000e+00 1.6167135238600000e+01
0.0000000000000000e+00 1.8668199539200000e+01
0.0000000000000000e+00 2.5747400283800001e+01
ITEM: ATOMS id type x y z
117 3 1.24354 1.97339 0.939959
141 3 3.99905 1.90145 1.00938
145 3 2.61053 1.30201 3.0195
165 3 4.02693 3.55679 3.05114
173 3 1.23016 3.53057 3.04395
101 3 2.67422 4.26872 1.04964
186 3 5.35859 1.16794 3.07975
121 3 5.33466 4.25708 0.952008
213 3 1.26622 2.03191 5.15934
237 3 3.94557 1.99369 5.25129
197 3 2.60431 4.23424 5.06758
217 3 5.22863 4.46077 5.2313
241 3 2.50865 1.24737 7.32327
282 3 5.32752 1.12407 7.38172
261 3 3.83517 3.60272 7.38216
269 3 1.21503 3.5747 7.43494
333 3 4.03581 2.05918 9.38752
309 3 1.28287 2.05087 9.48759
293 3 2.54883 4.36458 9.42162
313 3 5.24805 4.37199 9.42135
58 1 4.98282 1.63423 12.3588
2 1 3.1756 0.577764 12.291
77 2 4.04839 2.00325 12.6232
11 1 4.00603 3.00961 12.5251
17 1 0.351549 4.47173 12.5846
26 1 0.692009 0.0172504 11.874
105 3 3.88987 6.62087 0.947212
133 3 1.27453 6.66222 0.883297
161 3 1.25206 8.19516 3.04866
177 3 2.58268 5.88971 2.99181
181 3 3.99685 8.14361 3.04103
137 3 2.63642 8.99998 0.985943
149 3 5.26672 5.90996 3.03678
109 3 5.29812 8.97203 0.906225
98 3 0.00490287 8.91751 1.0097
201 3 3.98371 6.79541 5.18936
229 3 1.29251 6.60389 5.22006
233 3 2.58545 9.03181 5.13774
245 3 5.31785 5.83471 7.31803
273 3 2.5939 5.86977 7.26168
257 3 1.34547 8.16502 7.32678
277 3 4.03823 8.32127 7.29792
205 3 5.36931 9.01246 5.11763
301 3 5.25738 9.02464 9.51823
329 3 2.58274 8.95979 9.51556
325 3 1.37316 6.65514 9.38806
297 3 3.96657 6.63091 9.47284
40 1 5.16244 7.67202 10.4509
55 1 3.28964 8.422 11.7243
92 2 3.40213 8.40571 12.7607
56 1 3.13171 7.47236 13.0597
45 1 3.01998 5.36163 12.9538
13 1 3.61512 5.27149 11.6175
78 2 3.82224 5.36292 12.529
73 2 0.922762 5.21386 12.5565
32 1 1.42619 5.17782 11.3275
118 3 1.32035 11.2638 0.943585
142 3 3.96864 11.4004 0.946617
146 3 2.58102 10.5077 2.93615
166 3 3.99158 12.9085 3.04993
174 3 1.25865 12.8419 3.00451
102 3 2.64685 13.6439 0.95016
122 3 5.32018 13.596 0.948175
185 3 5.26463 10.5375 3.00609
214 3 1.27763 11.3794 5.2376
238 3 3.92895 11.3494 5.1623
198 3 2.69227 13.6655 5.24524
242 3 2.65173 10.5663 7.27349
262 3 4.02704 12.8874 7.29432
270 3 1.35037 12.923 7.34437
314 3 5.30679 13.7638 9.46484
281 3 5.3403 10.605 7.40907
310 3 1.27215 11.3146 9.4527
334 3 3.8479 11.3068 9.34625
294 3 2.58329 13.7376 9.42375
34 1 2.00032 13.7851 13.361
16 1 3.64323 11.6089 12.6429
31 1 0.594007 11.3349 13.795
94 2 1.77587 10.5232 12.6776
1 1 4.12393 12.599 11.575
62 1 1.69463 10.427 11.7631
65 2 4.26669 12.3323 12.4653
5 1 2.51935 9.79804 13.0657
106 3 4.04521 15.9977 0.96252
134 3 1.22747 16.0417 0.995319
162 3 1.21588 17.6322 3.05121
178 3 2.56351 15.2291 2.96542
182 3 3.94103 17.5934 3.07293
138 3 2.6366 18.3308 0.913839
110 3 5.37521 18.3061 0.998719
202 3 3.99624 15.9823 5.1381
230 3 1.36316 16.013 5.21813
234 3 2.64863 18.3267 5.17968
206 3 5.35433 18.2413 5.19617
274 3 2.59408 15.2211 7.34404
258 3 1.25733 17.581 7.43338
278 3 3.90394 17.535 7.50693
326 3 1.19644 16.0157 9.40404
298 3 3.91789 15.9002 9.49225
330 3 2.59439 18.3295 9.54489
246 3 5.34276 15.142 7.3724
36 1 3.05033 17.7665 11.9952
70 2 3.99518 16.1401 11.8641
64 1 4.9867 16.0224 11.9652
6 1 3.54412 15.4917 12.1477
66 2 2.58716 18.6079 11.8359
50 1 1.73914 14.0827 11.8022
90 2 1.83771 14.5159 12.6384
114 3 6.65683 1.93277 0.918443
135 3 9.31098 2.03048 0.955497
159 3 8.00925 1.18798 3.01138
163 3 9.31289 3.48482 3.15067
189 3 6.59649 3.42288 3.10348
100 3 8.05757 4.36117 0.99128
179 3 10.6867 1.19963 2.95952
139 3 10.671 4.20015 1.00653
210 3 6.63353 1.93046 5.24372
231 3 9.40033 1.97509 5.24868
196 3 8.01357 4.26914 5.22095
286 3 6.60749 3.47885 7.33667
254 3 8.01605 1.21885 7.31036
275 3 10.7097 1.25378 7.35105
235 3 10.6996 4.28533 5.23183
259 3 9.36091 3.49725 7.44094
306 3 6.70861 2.00537 9.45317
327 3 9.37493 1.99544 9.54636
291 3 7.99922 4.33456 9.46749
331 3 10.5786 4.39325 9.4708
47 1 7.8227 4.38181 12.9731
33 1 7.23857 1.19907 11.8217
39 1 8.78384 3.28472 11.7154
81 2 6.87067 1.1754 12.766
20 1 10.3028 3.91523 12.6101
83 2 8.47536 3.54912 12.7852
37 1 7.26303 2.08613 12.9543
120 3 9.28782 6.60881 0.928983
125 3 6.64712 6.58709 0.959294
153 3 6.77424 8.21216 3.03409
172 3 7.95168 5.82363 3.07253
176 3 9.39089 8.22018 3.0733
132 3 7.98065 9.03642 0.88269
148 3 10.7335 5.85525 3.05717
104 3 10.7156 9.08788 1.02176
216 3 9.29367 6.61238 5.20795
221 3 6.6581 6.72918 5.25051
228 3 7.98503 8.99027 5.29977
200 3 10.73 8.99673 5.26187
272 3 9.3717 8.13435 7.32904
296 3 10.5272 8.98532 9.4892
244 3 10.6286 5.87621 7.38315
265 3 8.03368 5.76835 7.39381
249 3 6.66766 8.22304 7.3835
317 3 6.60892 6.69636 9.38739
312 3 9.2766 6.69567 9.43719
324 3 7.88857 9.00669 9.47483
8 1 9.25623 8.7951 11.6943
74 2 10.451 8.89586 11.7559
72 2 6.62797 5.98284 12.6088
12 1 6.69475 5.65287 11.6336
21 1 5.50607 6.15069 12.73
60 1 7.49135 8.27855 12.052
87 2 7.94298 8.89316 11.6085
113 3 6.61122 11.3808 0.877242
136 3 9.36846 11.4064 0.981033
160 3 8.04985 10.4965 3.09175
164 3 9.39282 12.9136 2.99598
190 3 6.65521 12.9076 3.0054
99 3 7.99835 13.6513 0.880429
140 3 10.7 13.688 0.906111
180 3 10.7255 10.5771 3.08958
209 3 6.62333 11.2975 5.23627
232 3 9.35469 11.3602 5.17767
195 3 8.06259 13.5882 5.13785
260 3 9.27528 12.7625 7.34255
276 3 10.7355 10.5534 7.34599
236 3 10.6763 13.6238 5.12189
218 3 5.43494 13.5945 5.21727
253 3 7.95472 10.556 7.38677
285 3 6.68701 12.8986 7.44268
328 3 9.24684 11.2757 9.41616
305 3 6.58264 11.3788 9.51066
292 3 8.16674 13.5991 9.48899
332 3 10.6468 13.6059 9.36295
10 1 9.01373 13.2188 11.9136
82 2 6.58455 11.2392 11.8576
30 1 6.66852 10.2913 12.1743
89 2 8.07514 13.4759 11.6714
43 1 7.55462 12.6317 12.1346
54 1 5.49719 11.5399 12.0018
85 2 10.724 13.5445 11.7157
119 3 9.32129 15.9705 0.909845
126 3 6.69271 16.0292 0.840759
154 3 6.70085 17.4935 3.0256
171 3 8.02485 15.199 2.99982
175 3 9.34685 17.5624 3.00614
131 3 8.02241 18.2004 0.934701
103 3 10.6311 18.2922 0.916642
147 3 10.7339 15.2404 3.01445
150 3 5.41566 15.2216 3.01622
243 3 10.6485 15.214 7.35332
227 3 8.04116 18.3339 5.19296
215 3 9.39537 15.9803 5.1978
222 3 6.75118 15.9541 5.23648
199 3 10.6782 18.245 5.28894
266 3 8.02222 15.1501 7.22999
250 3 6.64431 17.5179 7.40626
271 3 9.28891 17.5034 7.39929
318 3 6.6863 15.9047 9.48167
311 3 9.37102 15.9417 9.47492
323 3 7.95553 18.3115 9.44794
295 3 10.7167 18.3391 9.4095
302 3 5.3907 18.3955 9.42357
52 1 7.88965 18.3546 12.4895
51 1 9.16542 17.7671 11.7264
91 2 8.50647 17.5319 12.4983
96 2 6.56287 15.9535 11.8186
27 1 7.29182 16.4745 11.9839
53 1 6.80039 15.0419 12.1506
46 1 10.2955 18.2135 13.0706
107 3 12.0542 2.04468 1.01828
127 3 14.8073 2.01473 1.05802
151 3 13.4482 1.13481 3.05832
155 3 14.6501 3.52608 3.05239
183 3 12.024 3.51528 3.13923
111 3 13.4207 4.32063 1.07547
129 3 16.0834 4.24867 0.998434
169 3 16.0038 1.16893 3.11069
203 3 12.0248 1.9379 5.17953
223 3 14.7609 2.07199 5.32314
207 3 13.4279 4.31471 5.23436
225 3 16.1185 4.33872 5.21834
321 3 15.9934 4.29565 9.63574
251 3 14.7119 3.55467 7.39881
267 3 16.1329 1.23891 7.44273
279 3 11.9947 3.45327 7.4231
247 3 13.416 1.22678 7.35893
319 3 14.7303 2.09725 9.47749
299 3 12.0282 1.91461 9.43048
303 3 13.3867 4.23397 9.50123
24 1 12.1084 1.40377 13.7419
76 2 11.2714 4.18651 12.333
7 1 15.6262 0.860702 12.4917
80 2 15.1301 2.43739 12.7535
29 1 15.0662 2.65053 11.6887
68 2 12.6599 2.16575 14.0314
28 1 14.0955 2.36305 13.0241
57 1 11.8588 3.73608 12.8621
42 1 11.0884 0.533716 12.1561
38 1 12.8166 1.76034 15.0323
115 3 14.7204 6.6094 0.970082
144 3 12.0613 6.71138 0.956851
168 3 12.001 8.26317 3.05561
187 3 13.3541 5.87557 3.05556
192 3 14.715 8.17992 3.12074
124 3 13.4488 9.01568 0.939944
157 3 16.0518 5.83544 3.02338
211 3 14.7191 6.67034 5.17793
240 3 11.9417 6.64466 5.27617
220 3 13.344 8.96695 5.22721
194 3 16.0666 8.97478 5.25711
255 3 16.0566 5.88598 7.3695
283 3 13.3362 5.81646 7.40618
264 3 11.9841 8.14547 7.51528
287 3 14.6993 8.20347 7.37888
307 3 14.7372 6.61992 9.4614
336 3 12.0307 6.64519 9.54051
316 3 13.4168 9.05465 9.3863
289 3 16.0508 9.01486 9.41796
18 1 10.8864 8.04904 11.8415
84 2 14.7111 6.88922 11.894
44 1 11.6664 5.85952 11.8303
14 1 15.0244 7.94573 12.1377
88 2 11.9453 6.71736 11.7535
4 1 15.2911 6.09382 12.1702
48 1 12.7798 6.83803 12.2292
108 3 12.0924 11.2512 0.886564
128 3 14.715 11.3056 0.990015
152 3 13.4704 10.5827 3.00659
156 3 14.8168 12.8821 3.03745
184 3 12.1301 12.9212 3.03915
112 3 13.3651 13.594 0.917013
170 3 16.1656 10.5362 3.0597
130 3 16.032 13.6899 0.897582
204 3 12.0404 11.2327 5.2091
224 3 14.8169 11.3555 5.14127
208 3 13.423 13.6601 5.19425
280 3 12.048 12.864 7.29064
252 3 14.7732 12.8985 7.25527
248 3 13.404 10.4567 7.27516
268 3 16.0231 10.5022 7.24861
226 3 16.1286 13.6917 5.26594
304 3 13.4836 13.6423 9.40075
300 3 11.9885 11.356 9.42939
320 3 14.7619 11.4565 9.29546
322 3 16.0945 13.7158 9.38346
75 2 14.3087 10.1836 12.2485
79 2 16.0345 11.6958 14.268
35 1 11.3982 10.1161 11.8907
93 2 13.9982 13.316 12.8055
9 1 11.4053 12.9026 11.7164
69 2 11.7282 10.9946 11.7127
19 1 14.7783 10.7483 12.5895
22 1 12.5864 10.8038 11.9539
41 1 14.7893 12.9146 13.415
61 1 14.2918 12.9308 11.8999
23 1 14.6797 10.1623 11.2484
63 1 15.9882 11.2722 15.1562
116 3 14.8378 16.0296 0.953856
143 3 12.0525 16.115 0.896351
167 3 12.0881 17.5215 3.08409
188 3 13.4142 15.2508 3.04277
191 3 14.8294 17.5178 2.99435
123 3 13.3971 18.2638 0.899772
158 3 16.0651 15.1629 3.02885
97 3 16.0744 18.3525 0.925625
212 3 14.6895 15.9767 5.1863
239 3 12.0071 15.9229 5.20886
219 3 13.5002 18.2869 5.14218
284 3 13.4236 15.2098 7.34786
256 3 16.1366 15.2824 7.35006
193 3 16.0535 18.2868 5.2371
263 3 12.1034 17.5739 7.36718
288 3 14.7536 17.5169 7.46748
335 3 12.0798 16.0325 9.45759
308 3 14.748 15.9245 9.47751
315 3 13.3978 18.3597 9.50668
290 3 16.1242 18.3413 9.5469
86 2 11.3704 18.531 12.7829
3 1 15.2419 17.0554 11.9728
49 1 11.2489 14.2647 11.9336
71 2 14.7403 16.2374 11.8313
15 1 11.727 16.6808 12.4074
95 2 11.9427 15.8334 12.0632
25 1 12.847 15.7608 12.1384
59 1 15.0829 15.4193 12.5151
67 2 15.8136 18.6456 11.9763
