ITEM: TIMESTEP
18404000
ITEM: NUMBER OF ATOMS
336
ITEM: BOX BOUNDS pp pp pp
0.0000000000000000e+00 1.6167135238600000e+01
0.0000000000000000e+00 1.8668199539200000e+01
0.0000000000000000e+00 2.5747400283800001e+01
ITEM: ATOMS id type x y z
117 3 1.25525 1.98518 0.939058
141 3 3.98187 1.90247 0.998265
145 3 2.59875 1.28663 3.04463
165 3 4.01824 3.54362 3.05426
173 3 1.23635 3.52524 3.05245
101 3 2.66099 4.27043 1.04383
186 3 5.36322 1.16205 3.08295
121 3 5.34606 4.2565 0.949799
213 3 1.26024 2.01506 5.16026
237 3 3.95399 1.99914 5.26541
197 3 2.61999 4.25343 5.05399
217 3 5.23057 4.46029 5.234
241 3 2.49884 1.22576 7.32125
282 3 5.33748 1.11833 7.38321
269 3 1.20374 3.58073 7.41976
261 3 3.83332 3.60968 7.38805
309 3 1.26972 2.0455 9.48411
333 3 4.05154 2.04177 9.39685
293 3 2.5592 4.36964 9.42895
313 3 5.2559 4.36732 9.44011
11 1 4.01081 3.13089 12.56
2 1 3.11519 0.76041 12.3261
77 2 4.10298 2.05762 12.5855
58 1 4.87357 1.54074 12.2808
17 1 0.222702 4.46511 12.6646
105 3 3.90045 6.63129 0.953422
133 3 1.27509 6.67154 0.898696
161 3 1.25767 8.16241 3.06398
177 3 2.58407 5.87961 2.99208
181 3 4.00853 8.14639 3.01961
137 3 2.62224 8.98295 0.989896
109 3 5.31444 8.96455 0.923634
149 3 5.2716 5.92609 3.04574
98 3 0.0194784 8.90815 0.975487
245 3 5.32182 5.83826 7.31806
205 3 5.36403 8.9925 5.09286
201 3 3.9872 6.7689 5.19551
229 3 1.29388 6.61583 5.21966
233 3 2.59649 9.02225 5.15202
273 3 2.59071 5.86663 7.26412
257 3 1.32808 8.15066 7.30732
277 3 4.03893 8.3363 7.29711
301 3 5.24702 9.04748 9.53092
325 3 1.36774 6.65889 9.40543
297 3 3.96391 6.64986 9.47391
329 3 2.58674 8.95428 9.50892
40 1 5.10782 7.54466 10.6025
45 1 2.87341 5.27187 12.9274
78 2 3.82913 5.3642 12.5245
55 1 3.53797 8.3683 11.8127
13 1 3.53009 5.394 11.5244
56 1 3.12864 7.52699 12.8112
92 2 3.392 8.40821 12.7385
32 1 1.30272 5.03223 11.492
73 2 0.934194 5.2339 12.53
118 3 1.3198 11.2732 0.971181
142 3 3.96341 11.3977 0.956042
146 3 2.59114 10.5254 2.95071
166 3 3.99504 12.9244 3.03791
174 3 1.27163 12.8489 3.0023
102 3 2.62499 13.6371 0.95169
122 3 5.3251 13.5993 0.945539
185 3 5.27301 10.5397 3.00211
214 3 1.2597 11.3856 5.24133
238 3 3.94023 11.3491 5.15657
198 3 2.68105 13.6634 5.23846
242 3 2.67712 10.5353 7.28703
262 3 4.02273 12.8967 7.29194
270 3 1.35625 12.9247 7.33565
314 3 5.29404 13.7702 9.45715
310 3 1.28366 11.3041 9.4731
334 3 3.85616 11.3097 9.34493
294 3 2.5638 13.7316 9.42583
281 3 5.35983 10.6083 7.39133
65 2 4.27212 12.3268 12.5174
5 1 2.31687 9.78077 12.9191
62 1 1.82619 10.4491 11.6965
94 2 1.81172 10.5608 12.7069
16 1 3.41825 11.7453 12.609
1 1 4.08566 12.7435 11.6352
31 1 0.669491 11.368 13.7886
34 1 1.86387 13.7934 13.4146
106 3 4.05121 15.9888 0.956652
134 3 1.20655 16.0255 0.979274
162 3 1.24625 17.6191 3.0665
178 3 2.5868 15.2099 2.95305
182 3 3.94854 17.5985 3.05586
138 3 2.64716 18.3152 0.942698
110 3 5.36795 18.3012 0.992092
202 3 3.97715 15.9822 5.12276
230 3 1.3476 16.0213 5.22559
234 3 2.6382 18.3297 5.18577
206 3 5.36299 18.2271 5.17603
274 3 2.58054 15.2378 7.32873
302 3 5.37 18.4011 9.42061
258 3 1.25009 17.5797 7.43859
278 3 3.89507 17.5351 7.50647
326 3 1.18767 16.0179 9.40323
298 3 3.92856 15.9233 9.51521
330 3 2.59405 18.3302 9.54846
246 3 5.33238 15.1427 7.38622
36 1 3.10211 17.632 12.0892
66 2 2.59643 18.5898 11.9122
64 1 5.09879 16.1761 11.9979
70 2 3.95892 16.0945 11.8542
6 1 3.46248 15.334 12.1254
90 2 1.85376 14.4855 12.6267
26 1 0.627179 18.6376 11.8322
50 1 1.57956 14.0876 11.8412
114 3 6.64823 1.92561 0.934471
135 3 9.3105 2.03164 0.944196
159 3 8.01124 1.16928 3.03155
163 3 9.3168 3.49377 3.14342
189 3 6.58658 3.42065 3.10817
100 3 8.05689 4.37228 1.00033
179 3 10.6902 1.19266 2.96902
139 3 10.6637 4.18313 1.02058
210 3 6.62726 1.94255 5.22798
231 3 9.41161 1.98064 5.263
196 3 8.01729 4.27313 5.22347
254 3 8.00111 1.22581 7.29987
235 3 10.7035 4.28181 5.23331
275 3 10.7157 1.24656 7.36825
286 3 6.63328 3.46954 7.36496
259 3 9.3793 3.51307 7.43632
327 3 9.36175 1.98963 9.53568
306 3 6.71441 2.00385 9.46324
291 3 7.97684 4.32944 9.49629
331 3 10.5766 4.39546 9.46812
47 1 7.82981 4.30313 12.7165
81 2 6.85884 1.1988 12.7295
37 1 7.39955 2.00011 12.981
33 1 7.05163 1.15147 11.8371
20 1 10.3766 4.1503 12.6026
83 2 8.50807 3.53811 12.7801
39 1 8.70111 3.27462 11.7334
120 3 9.28963 6.59381 0.916907
125 3 6.65625 6.59452 0.954675
153 3 6.75971 8.23223 3.02344
172 3 7.9578 5.82516 3.09228
176 3 9.39874 8.22552 3.07093
132 3 8.00356 9.01575 0.887083
148 3 10.7152 5.84952 3.04557
104 3 10.7139 9.07837 1.03619
200 3 10.7382 9.00179 5.27187
216 3 9.30188 6.62617 5.18318
221 3 6.66773 6.71155 5.26643
228 3 8.01325 8.99049 5.3117
272 3 9.37342 8.1476 7.33376
296 3 10.53 8.99568 9.4894
265 3 8.01708 5.77265 7.40642
249 3 6.66266 8.21265 7.37169
244 3 10.6276 5.87948 7.37688
312 3 9.28506 6.67757 9.41877
317 3 6.60724 6.69824 9.38952
324 3 7.8909 9.00424 9.47772
74 2 10.4584 8.86704 11.7372
87 2 7.96125 8.89671 11.5969
21 1 5.6768 6.0871 12.6582
72 2 6.6338 5.9837 12.5612
8 1 8.91118 8.98607 11.7354
60 1 7.49414 8.20072 12.1365
12 1 6.69667 5.52911 11.6462
113 3 6.61903 11.3747 0.89593
136 3 9.35515 11.4022 0.986272
160 3 8.04647 10.4956 3.06873
164 3 9.39203 12.8846 3.01192
190 3 6.6585 12.8873 2.99586
99 3 7.99233 13.6571 0.877765
140 3 10.7116 13.6674 0.898813
180 3 10.7141 10.5677 3.11899
236 3 10.6801 13.6231 5.11857
209 3 6.63473 11.2991 5.25146
232 3 9.36521 11.3424 5.18469
195 3 8.05866 13.598 5.14693
260 3 9.28968 12.7613 7.34477
276 3 10.7287 10.5499 7.32869
218 3 5.44341 13.6188 5.1925
253 3 7.94912 10.5569 7.3842
285 3 6.6816 12.8902 7.42798
305 3 6.57495 11.389 9.51325
328 3 9.23192 11.2977 9.41581
292 3 8.16337 13.6054 9.50318
332 3 10.6516 13.5954 9.35643
89 2 8.0827 13.4647 11.7066
82 2 6.60321 11.2946 11.8349
30 1 6.82882 10.3949 12.0931
54 1 5.50564 11.6018 11.7732
10 1 9.09651 13.4601 11.6103
43 1 7.64634 12.6209 12.0498
85 2 10.7102 13.53 11.7098
119 3 9.31286 15.9683 0.875629
126 3 6.7032 16.0246 0.842573
154 3 6.69723 17.521 3.0108
171 3 8.03108 15.191 2.99585
175 3 9.34702 17.5485 2.99927
131 3 8.0255 18.2311 0.939103
103 3 10.636 18.2952 0.908685
147 3 10.7459 15.2238 3.01479
150 3 5.40563 15.2233 2.99666
215 3 9.39527 15.9549 5.20078
222 3 6.76781 15.939 5.21897
227 3 8.06159 18.3301 5.18374
199 3 10.6826 18.2322 5.29708
266 3 8.02173 15.1542 7.23718
243 3 10.6521 15.2311 7.36702
271 3 9.29534 17.5045 7.38571
250 3 6.64201 17.5185 7.41203
318 3 6.69931 15.9103 9.48505
311 3 9.3614 15.9564 9.47423
323 3 7.95152 18.3013 9.48327
295 3 10.7331 18.3166 9.42715
52 1 7.81148 18.2305 12.5266
51 1 9.17268 17.6754 11.671
91 2 8.54446 17.5477 12.4893
27 1 7.19595 16.4185 11.8536
96 2 6.54988 15.8992 11.8135
53 1 6.89296 14.9542 12.0452
46 1 10.3926 18.2289 13.1435
107 3 12.0626 2.0271 1.00335
127 3 14.8177 2.02056 1.06627
151 3 13.4283 1.15518 3.05623
155 3 14.651 3.53511 3.05662
183 3 12.0249 3.51825 3.14522
111 3 13.4124 4.3109 1.08511
129 3 16.1066 4.24568 0.982276
169 3 15.9995 1.15294 3.10762
203 3 12.0288 1.93483 5.17499
223 3 14.7665 2.06851 5.33081
207 3 13.4284 4.29743 5.22821
225 3 16.1342 4.34909 5.21596
267 3 16.1348 1.24017 7.43505
251 3 14.7095 3.56417 7.39962
321 3 16.0179 4.29723 9.64295
279 3 12.0047 3.46467 7.43809
247 3 13.4257 1.2236 7.36296
299 3 12.031 1.9398 9.41468
319 3 14.7234 2.10924 9.47029
303 3 13.3904 4.21672 9.49481
7 1 15.4764 0.873109 12.4007
42 1 11.162 0.555685 11.9964
80 2 15.1223 2.40744 12.6965
57 1 11.9918 3.67932 12.8854
29 1 14.8286 2.5894 11.6231
28 1 14.1779 2.31828 13.1444
24 1 12.0365 1.47963 13.6604
68 2 12.6977 2.1191 14.0643
76 2 11.305 4.13083 12.3788
38 1 12.6555 2.06314 14.9994
115 3 14.7248 6.59503 0.966302
144 3 12.0648 6.72196 0.963281
168 3 11.996 8.26232 3.04956
187 3 13.3437 5.87407 3.06084
192 3 14.7304 8.15822 3.09711
124 3 13.4556 9.00921 0.959452
157 3 16.0645 5.85381 3.04641
211 3 14.6972 6.67906 5.17514
240 3 11.9395 6.65249 5.24907
220 3 13.3642 8.98543 5.22638
194 3 16.0534 8.96695 5.2658
255 3 16.0627 5.89095 7.35696
283 3 13.3135 5.81964 7.41776
264 3 12.011 8.14967 7.51304
289 3 16.0293 9.02209 9.40655
287 3 14.6785 8.18901 7.3665
336 3 12.0204 6.64167 9.53357
307 3 14.7396 6.64038 9.47925
316 3 13.4387 9.03918 9.3678
18 1 10.8302 8.17783 11.9484
4 1 15.2683 6.08397 12.2394
88 2 11.9679 6.67635 11.7711
44 1 11.5898 5.83394 11.9674
48 1 12.7913 6.79102 12.1595
14 1 15.0262 7.79363 12.1926
84 2 14.7329 6.88168 11.9369
108 3 12.1045 11.2366 0.876376
128 3 14.7313 11.2896 0.974987
152 3 13.4657 10.5784 2.99507
156 3 14.8026 12.864 3.03094
184 3 12.1291 12.9061 3.0408
112 3 13.3508 13.5917 0.913628
170 3 16.1475 10.5338 3.05186
130 3 16.0203 13.6879 0.907498
204 3 12.0552 11.2481 5.21027
224 3 14.8085 11.3621 5.1394
208 3 13.4399 13.6631 5.20674
252 3 14.7784 12.8986 7.23759
280 3 12.0547 12.8652 7.30202
268 3 16.0285 10.5124 7.26146
248 3 13.407 10.4505 7.26057
226 3 16.1095 13.6888 5.25433
320 3 14.7684 11.4523 9.29726
300 3 12.0023 11.352 9.4286
304 3 13.4735 13.6646 9.39774
322 3 16.1082 13.7319 9.38932
75 2 14.3409 10.193 12.2127
93 2 13.9704 13.3427 12.8247
22 1 12.5878 10.7515 12.0569
35 1 11.2115 10.0886 11.8256
79 2 15.975 11.6972 14.3095
19 1 14.9261 10.7619 12.745
9 1 11.5432 13.0044 11.6305
69 2 11.6867 10.9993 11.7561
41 1 14.584 12.8421 13.3864
61 1 14.0853 12.8765 12.0022
23 1 14.8072 9.96778 11.2821
63 1 15.9194 11.1222 14.9682
116 3 14.8228 16.0281 0.946631
143 3 12.0599 16.1163 0.89972
167 3 12.0648 17.5274 3.07865
188 3 13.4203 15.2342 3.06654
191 3 14.8318 17.512 2.99959
123 3 13.3926 18.2436 0.906701
97 3 16.0814 18.3446 0.9152
158 3 16.0643 15.1431 3.02692
212 3 14.7082 15.9616 5.1974
239 3 12.0154 15.9372 5.22362
219 3 13.5046 18.2725 5.16007
284 3 13.4391 15.2151 7.34969
256 3 16.1413 15.2613 7.3449
193 3 16.0525 18.2912 5.23748
288 3 14.7482 17.5196 7.48604
263 3 12.1034 17.5672 7.37785
335 3 12.0698 16.0336 9.46179
308 3 14.7355 15.9265 9.46524
315 3 13.4124 18.3704 9.49866
290 3 16.1413 18.3263 9.53649
25 1 12.9868 15.8647 12.1593
59 1 15.0982 15.4414 12.2946
71 2 14.7176 16.2215 11.8014
49 1 11.1379 14.2625 12.0139
3 1 15.2145 17.0393 11.958
15 1 11.6012 16.7249 12.3757
95 2 11.9414 15.8274 12.0172
86 2 11.3519 18.5986 12.7834
67 2 15.8438 18.6118 11.9465
