ITEM: TIMESTEP
18404000
ITEM: NUMBER OF ATOMS
336
ITEM: BOX BOUNDS pp pp pp
0.0000000000000000e+00 1.6167135238600000e+01
0.0000000000000000e+00 1.8668199539200000e+01
0.0000000000000000e+00 2.5747400283800001e+01
ITEM: ATOMS id type x y z
117 3 1.25555 1.9587 0.93513
141 3 4.01736 1.8858 0.9952
145 3 2.62144 1.26775 3.01729
165 3 4.03039 3.52792 3.08595
173 3 1.26489 3.52001 3.05617
101 3 2.65606 4.25421 1.04615
186 3 5.31681 1.15582 3.07471
121 3 5.31988 4.23022 0.9717
213 3 1.28472 2.01723 5.14841
237 3 3.95248 2.02046 5.27891
197 3 2.60979 4.24846 5.05697
217 3 5.24052 4.48306 5.24125
241 3 2.49754 1.25283 7.2914
282 3 5.33658 1.12607 7.3846
261 3 3.86831 3.60941 7.35693
269 3 1.23077 3.5841 7.40964
333 3 4.04841 2.03159 9.37828
309 3 1.28402 2.04 9.49235
293 3 2.55425 4.34028 9.43488
313 3 5.25389 4.36903 9.43363
11 1 3.89969 3.09502 12.3581
58 1 5.06556 1.95434 12.6608
2 1 3.17905 0.522414 12.178
77 2 4.05497 2.06878 12.5895
17 1 0.515914 4.33604 12.7933
26 1 0.634804 0.184276 12.2049
105 3 3.90283 6.58929 0.947628
133 3 1.2821 6.65434 0.846812
161 3 1.25407 8.18586 3.05435
177 3 2.57251 5.90339 2.96232
181 3 4.00172 8.16916 3.03714
137 3 2.62373 8.98951 0.98387
149 3 5.2704 5.92096 3.04179
109 3 5.30262 8.97766 0.891094
201 3 4.00052 6.7705 5.18998
229 3 1.29748 6.61812 5.18299
233 3 2.5892 9.02306 5.14009
277 3 4.04429 8.31599 7.28539
245 3 5.35375 5.84402 7.30253
273 3 2.5724 5.89239 7.26833
257 3 1.34909 8.18258 7.33962
205 3 5.34977 9.00933 5.14154
329 3 2.56427 8.97138 9.51534
297 3 3.97078 6.61508 9.48816
325 3 1.36104 6.66072 9.40184
301 3 5.24199 9.048 9.51206
40 1 5.34916 7.55208 10.7095
56 1 3.27481 7.42725 13.0178
55 1 3.67811 8.36206 11.7795
32 1 1.01504 5.09621 11.5164
78 2 3.83768 5.34326 12.5554
13 1 3.58443 5.28699 11.535
92 2 3.45458 8.40738 12.7606
73 2 0.85938 5.20128 12.5296
45 1 3.06189 5.33746 13.1159
118 3 1.32287 11.2849 0.969823
142 3 4.00056 11.4066 0.956863
146 3 2.57346 10.4933 2.9321
166 3 4.00148 12.9021 3.0479
174 3 1.23953 12.841 2.99946
102 3 2.62707 13.6823 0.93589
122 3 5.31561 13.5923 0.93606
185 3 5.26025 10.5706 3.01179
214 3 1.24259 11.3822 5.22123
238 3 3.91863 11.3431 5.16852
198 3 2.68791 13.7101 5.25444
242 3 2.68082 10.5527 7.27701
262 3 4.02656 12.8703 7.31425
270 3 1.34338 12.9093 7.33291
314 3 5.30047 13.7854 9.45567
281 3 5.33885 10.6 7.38866
334 3 3.86331 11.3187 9.34511
310 3 1.29061 11.3062 9.42819
294 3 2.59591 13.7546 9.4388
1 1 4.18621 12.688 11.5249
5 1 2.38603 9.67265 13.1344
94 2 1.87568 10.6108 12.7348
31 1 0.556684 11.1583 13.8854
16 1 3.58323 11.8802 12.7038
62 1 1.96618 10.4813 11.7697
65 2 4.26922 12.358 12.3612
34 1 2.10608 13.794 13.3162
106 3 4.04402 15.9922 0.960202
134 3 1.25613 16.0604 0.975415
162 3 1.20675 17.606 3.0641
178 3 2.56545 15.2221 2.95311
182 3 3.94296 17.5844 3.0686
138 3 2.66073 18.3004 0.9086
110 3 5.35973 18.3152 0.976327
150 3 5.38133 15.1954 3.01494
246 3 5.36088 15.1278 7.34808
206 3 5.34197 18.2263 5.21418
202 3 3.97693 15.9745 5.14505
230 3 1.35087 16.0065 5.22994
234 3 2.65847 18.3386 5.19298
274 3 2.60014 15.2133 7.33943
278 3 3.9007 17.5386 7.46897
258 3 1.2505 17.5605 7.41718
330 3 2.60528 18.3074 9.55126
298 3 3.90346 15.9131 9.47529
326 3 1.18889 16.0053 9.40726
90 2 1.87601 14.5306 12.6523
70 2 3.93816 16.079 11.8312
66 2 2.69938 18.558 11.8535
50 1 1.97425 14.0475 11.677
36 1 3.25876 17.6581 12.3366
64 1 4.97017 15.9461 11.9111
6 1 3.37253 15.2807 12.1097
114 3 6.63966 1.93043 0.938411
135 3 9.30747 2.04158 0.964765
159 3 8.02289 1.17912 3.01139
163 3 9.31458 3.503 3.1505
189 3 6.62048 3.42759 3.10511
100 3 8.05014 4.35295 1.01499
179 3 10.676 1.21694 2.97118
139 3 10.6875 4.20449 0.999079
210 3 6.63608 1.9325 5.21511
231 3 9.40867 1.98401 5.23525
196 3 7.98755 4.2598 5.18992
254 3 7.98563 1.21467 7.31242
235 3 10.6728 4.27937 5.21528
286 3 6.6013 3.48635 7.39074
259 3 9.37543 3.54745 7.4308
306 3 6.71022 2.01153 9.46364
327 3 9.36259 1.99609 9.5439
291 3 7.99702 4.30098 9.46468
275 3 10.7234 1.23831 7.37906
331 3 10.5836 4.40375 9.47273
81 2 6.94289 1.21142 12.8511
47 1 7.89258 4.23041 12.9508
33 1 7.23063 1.39781 11.8704
37 1 7.41274 2.05605 13.2026
20 1 10.3191 4.0769 12.668
39 1 8.68586 3.36716 11.7222
83 2 8.50405 3.53102 12.8104
120 3 9.27428 6.61299 0.9022
125 3 6.67597 6.60878 0.956386
153 3 6.75034 8.19988 3.01767
172 3 7.94798 5.8324 3.05464
176 3 9.40656 8.19343 3.10041
132 3 7.95798 9.0507 0.883381
148 3 10.7434 5.83416 3.04729
104 3 10.6872 9.0682 1.00982
200 3 10.7519 8.98657 5.28161
216 3 9.27178 6.60231 5.17094
221 3 6.67667 6.73809 5.27039
228 3 8.00319 9.00521 5.32136
272 3 9.33989 8.15427 7.33844
296 3 10.5354 8.9947 9.5064
265 3 8.02724 5.78718 7.40243
249 3 6.67844 8.22123 7.36007
244 3 10.6448 5.89313 7.36211
312 3 9.28784 6.68753 9.44812
317 3 6.60165 6.7086 9.40384
324 3 7.90155 9.00939 9.47435
74 2 10.5164 8.90051 11.693
87 2 7.92139 8.95327 11.651
8 1 8.88677 8.67582 11.5348
72 2 6.70289 5.98191 12.5761
60 1 7.6541 8.01372 11.9648
21 1 5.78949 6.21074 12.6937
12 1 6.87964 5.78782 11.4916
113 3 6.6388 11.3901 0.877682
136 3 9.36816 11.4062 0.960986
160 3 8.04015 10.4961 3.07724
164 3 9.3918 12.9172 3.02551
190 3 6.69506 12.8591 2.97854
99 3 8.00559 13.6367 0.879386
140 3 10.7224 13.6803 0.890848
180 3 10.7108 10.5902 3.07776
209 3 6.63603 11.3054 5.21154
232 3 9.36144 11.3528 5.2073
195 3 8.02937 13.5644 5.14899
276 3 10.7053 10.5739 7.3393
260 3 9.28864 12.772 7.34208
236 3 10.6734 13.5988 5.11264
218 3 5.42962 13.614 5.22781
253 3 7.9705 10.558 7.39085
285 3 6.68813 12.9102 7.43549
328 3 9.23652 11.2825 9.43384
305 3 6.57371 11.3989 9.50499
292 3 8.14819 13.6131 9.50385
332 3 10.6683 13.6392 9.37151
82 2 6.60309 11.2656 11.8739
85 2 10.6817 13.5536 11.6631
30 1 6.98799 10.4832 12.0694
43 1 7.45347 13.0054 12.0773
54 1 5.63681 11.544 12.2135
10 1 9.11968 13.4518 12.0389
89 2 8.05323 13.4565 11.6352
119 3 9.30182 15.9768 0.907253
126 3 6.69274 16.0298 0.828459
154 3 6.68679 17.5115 3.024
171 3 8.01399 15.191 2.9801
175 3 9.36055 17.542 3.03144
131 3 8.02363 18.2246 0.947464
103 3 10.6095 18.3018 0.921729
147 3 10.7541 15.2278 3.0208
215 3 9.39216 15.9437 5.21085
222 3 6.72058 15.9182 5.22771
227 3 8.01439 18.3136 5.18015
266 3 8.04558 15.1612 7.20514
199 3 10.6925 18.233 5.31501
243 3 10.6337 15.2222 7.37807
250 3 6.6522 17.5266 7.42685
271 3 9.31541 17.5376 7.39772
318 3 6.71476 15.8967 9.43614
311 3 9.35889 15.9811 9.45962
323 3 7.95309 18.3462 9.49778
295 3 10.7414 18.3161 9.41406
302 3 5.38914 18.3652 9.43918
52 1 7.91441 18.5091 12.5634
27 1 7.28992 16.6548 12.1695
96 2 6.56876 15.8556 11.8151
91 2 8.49017 17.5985 12.5344
53 1 7.08329 15.0558 12.0983
51 1 9.12998 17.3665 11.7396
46 1 10.4009 18.2965 13.1985
107 3 12.0567 2.00944 1.01454
127 3 14.773 2.0503 1.07403
151 3 13.4106 1.15542 3.06113
155 3 14.6268 3.50856 3.04411
183 3 12.0416 3.51681 3.1089
111 3 13.4335 4.32708 1.043
129 3 16.0909 4.23493 0.994838
169 3 16.0005 1.15997 3.10012
225 3 16.1067 4.35095 5.21773
203 3 12.0244 1.92762 5.17656
223 3 14.7883 2.05777 5.31809
207 3 13.4003 4.28921 5.25628
267 3 16.1413 1.21901 7.41585
321 3 15.9937 4.29375 9.62788
251 3 14.7309 3.58464 7.38722
279 3 12.0181 3.47279 7.45222
247 3 13.4017 1.20369 7.36476
299 3 11.998 1.91773 9.42573
319 3 14.7488 2.1116 9.47372
303 3 13.3825 4.20389 9.50547
7 1 15.6121 0.839082 12.3075
29 1 15.0883 2.74631 11.7565
57 1 11.6367 3.67778 13.1041
68 2 12.6929 2.09652 14.0472
80 2 15.1706 2.45633 12.797
24 1 12.0065 1.5321 13.6799
28 1 14.1794 2.20294 13.0551
76 2 11.2968 4.1557 12.3235
42 1 10.9792 0.425594 11.9556
38 1 12.6642 2.00206 15.0403
115 3 14.7343 6.59217 0.967676
144 3 12.0231 6.6995 0.955708
168 3 11.9854 8.25564 3.05841
187 3 13.3785 5.87633 3.03344
192 3 14.7147 8.17195 3.11819
124 3 13.4372 9.03836 0.9443
157 3 16.0737 5.85219 3.04748
98 3 16.1417 8.89969 0.9933
211 3 14.7355 6.6687 5.16003
240 3 11.9404 6.64717 5.25754
220 3 13.3602 8.98213 5.21145
194 3 16.0552 8.9775 5.25089
255 3 16.0782 5.87045 7.39305
283 3 13.3431 5.80951 7.41839
264 3 12.0019 8.15565 7.5045
287 3 14.7 8.197 7.3852
336 3 12.0135 6.63124 9.52002
307 3 14.7543 6.62192 9.45957
316 3 13.4303 9.06718 9.39406
289 3 16.0708 9.06275 9.37471
44 1 11.7008 5.61945 11.8843
4 1 15.2518 6.20498 12.2376
88 2 11.8866 6.69536 11.7526
14 1 14.8944 7.77437 11.9574
48 1 12.7857 6.7606 12.0767
84 2 14.7562 6.87638 11.8527
18 1 10.8768 7.90467 11.6248
108 3 12.0969 11.2514 0.899004
128 3 14.7567 11.3196 0.984613
152 3 13.4375 10.5493 3.01338
156 3 14.8071 12.8972 3.01277
184 3 12.1283 12.9204 3.01472
112 3 13.354 13.6102 0.918043
170 3 16.1077 10.5141 3.05868
130 3 16.0584 13.6835 0.874177
204 3 12.0475 11.2016 5.1956
224 3 14.7878 11.315 5.16671
208 3 13.4236 13.6563 5.21606
252 3 14.7885 12.8994 7.22358
280 3 12.0689 12.8627 7.3013
268 3 16.0448 10.516 7.27858
248 3 13.4059 10.4746 7.30109
226 3 16.132 13.68 5.27788
300 3 11.9677 11.3512 9.39703
320 3 14.7349 11.4308 9.28977
304 3 13.4742 13.6422 9.40651
322 3 16.1156 13.7145 9.36089
93 2 14.0193 13.3247 12.8111
79 2 15.9968 11.6949 14.2606
61 1 13.9896 13.0779 11.7391
35 1 11.0559 10.0212 11.8522
75 2 14.2809 10.1655 12.2382
22 1 12.5623 10.8927 12.0545
9 1 11.4209 12.774 11.7672
69 2 11.7639 11.0408 11.7557
19 1 14.9949 10.8881 12.5267
41 1 14.6099 12.8011 13.4014
23 1 14.7112 9.96239 11.3781
63 1 15.8979 11.4804 15.2361
116 3 14.8335 15.9984 0.958232
143 3 12.0521 16.1421 0.875591
167 3 12.0762 17.5058 3.09052
188 3 13.4377 15.2307 3.04026
191 3 14.8372 17.5125 2.98645
123 3 13.3906 18.2484 0.902831
97 3 16.0824 18.3757 0.913055
158 3 16.071 15.1719 3.03255
212 3 14.7194 15.9765 5.22354
239 3 12.0099 15.9115 5.18953
219 3 13.5275 18.2667 5.18646
256 3 16.1321 15.2681 7.33421
193 3 16.035 18.2872 5.19125
284 3 13.4009 15.2173 7.37395
263 3 12.0914 17.5667 7.38456
288 3 14.7535 17.4821 7.47219
335 3 12.0553 16.0131 9.45331
308 3 14.753 15.9345 9.49136
315 3 13.4116 18.3884 9.50869
290 3 16.1366 18.3027 9.58049
49 1 11.1729 14.3849 12.0562
59 1 14.9898 15.4943 12.5096
86 2 11.2926 18.6433 12.7522
95 2 11.9921 15.8566 12.0435
71 2 14.7043 16.295 11.8722
25 1 12.8886 15.6139 12.2038
3 1 15.1909 17.1352 11.9275
15 1 11.769 16.7486 12.4967
67 2 15.8433 18.6612 12.0251
