ITEM: TIMESTEP
18404000
ITEM: NUMBER OF ATOMS
336
ITEM: BOX BOUNDS pp pp pp
0.0000000000000000e+00 1.6167135238600000e+01
0.0000000000000000e+00 1.8668199539200000e+01
0.0000000000000000e+00 2.5747400283800001e+01
ITEM: ATOMS id type x y z
117 3 1.25989 1.96066 0.942718
141 3 4.02345 1.88481 1.00559
145 3 2.61512 1.2693 3.02561
165 3 4.02849 3.52319 3.08634
173 3 1.26281 3.51701 3.05977
101 3 2.656 4.24957 1.0393
186 3 5.32023 1.16827 3.08015
121 3 5.31914 4.24103 0.975891
213 3 1.28101 2.01499 5.14831
237 3 3.94978 2.01731 5.26969
197 3 2.60777 4.24033 5.06245
217 3 5.24012 4.48737 5.23779
241 3 2.50078 1.25594 7.30078
261 3 3.87921 3.59822 7.35115
282 3 5.34545 1.12724 7.38066
269 3 1.23524 3.59887 7.42456
309 3 1.27646 2.0344 9.4838
333 3 4.04343 2.02286 9.37244
293 3 2.5596 4.35145 9.44129
313 3 5.24463 4.38009 9.43033
2 1 3.14808 0.493225 12.2206
58 1 5.02008 1.94204 12.5373
11 1 3.90773 2.94269 12.3156
77 2 4.04437 2.08781 12.5774
17 1 0.542914 4.3293 12.8806
26 1 0.761544 0.187105 12.1563
105 3 3.90361 6.5907 0.948756
133 3 1.28015 6.64919 0.841732
161 3 1.25617 8.18458 3.04177
177 3 2.57489 5.91356 2.96111
181 3 4.00778 8.17332 3.02696
137 3 2.62307 8.98702 0.979879
109 3 5.29844 8.9787 0.894284
149 3 5.26767 5.91147 3.03973
245 3 5.35381 5.84671 7.30614
201 3 4.00373 6.77674 5.18075
229 3 1.29153 6.62172 5.18421
233 3 2.59238 9.02134 5.15886
277 3 4.05558 8.30562 7.28557
273 3 2.56899 5.88183 7.27315
257 3 1.34636 8.17429 7.34472
205 3 5.34798 9.01853 5.13383
325 3 1.36262 6.65829 9.40335
297 3 3.96631 6.61349 9.48685
329 3 2.56922 8.97009 9.51132
301 3 5.24389 9.04864 9.51326
40 1 5.306 7.53755 10.721
55 1 3.76672 8.41896 11.7875
32 1 1.01355 4.98574 11.4375
56 1 3.21561 7.47225 12.9537
45 1 3.026 5.3908 13.2414
78 2 3.81985 5.32551 12.5601
13 1 3.48933 5.24207 11.5485
92 2 3.46498 8.43066 12.7561
73 2 0.868379 5.19303 12.5437
118 3 1.33093 11.2831 0.971337
142 3 4.00506 11.4208 0.958272
146 3 2.57223 10.499 2.9413
166 3 4.00759 12.9005 3.04829
174 3 1.24237 12.8337 3.0091
102 3 2.63112 13.6832 0.91946
122 3 5.32174 13.6003 0.932551
185 3 5.26651 10.5709 3.0142
214 3 1.25725 11.3885 5.22715
238 3 3.9236 11.3448 5.1695
198 3 2.68039 13.7004 5.25689
242 3 2.68364 10.5587 7.27826
262 3 4.02675 12.8675 7.30934
270 3 1.35033 12.9098 7.32704
334 3 3.85622 11.3151 9.34538
310 3 1.28862 11.2978 9.42306
294 3 2.59348 13.7453 9.44706
314 3 5.29243 13.7883 9.45321
281 3 5.33727 10.6035 7.38162
16 1 3.55383 11.9244 12.6489
94 2 1.88717 10.6054 12.7438
65 2 4.25434 12.3713 12.3657
62 1 1.90989 10.4192 11.6962
34 1 2.05371 13.7825 13.2579
1 1 4.11915 12.6736 11.4331
31 1 0.590588 11.1493 13.8481
5 1 2.4368 9.62828 13.0171
106 3 4.05015 15.9936 0.964684
134 3 1.25055 16.0617 0.967399
162 3 1.21077 17.6047 3.05497
178 3 2.57302 15.224 2.94917
182 3 3.9521 17.594 3.07046
138 3 2.66121 18.2923 0.914589
110 3 5.36488 18.3109 0.971657
150 3 5.37334 15.1972 3.00649
246 3 5.36761 15.127 7.33598
202 3 3.99832 15.9813 5.14904
230 3 1.3484 16.0082 5.23387
234 3 2.65241 18.3273 5.19123
206 3 5.34972 18.2242 5.22649
274 3 2.60084 15.2127 7.33712
302 3 5.37975 18.366 9.44132
258 3 1.25756 17.5666 7.42202
278 3 3.90397 17.5397 7.46554
326 3 1.18163 16.0118 9.40968
298 3 3.90483 15.9077 9.46833
330 3 2.6114 18.3193 9.5583
66 2 2.69181 18.5302 11.8871
6 1 3.32925 15.3685 11.9975
70 2 3.93759 16.0577 11.8327
64 1 4.93123 15.8673 11.8557
36 1 3.21772 17.623 12.3072
90 2 1.86659 14.5179 12.6658
50 1 1.9974 14.0854 11.5722
114 3 6.6454 1.93726 0.947235
135 3 9.30572 2.0428 0.96227
159 3 8.02856 1.17781 3.01919
163 3 9.30126 3.51207 3.14496
189 3 6.61389 3.4218 3.09631
100 3 8.05668 4.35266 1.00787
179 3 10.6755 1.22227 2.97163
139 3 10.6896 4.20778 0.999435
210 3 6.62989 1.91833 5.22951
231 3 9.39763 1.98235 5.22841
196 3 7.98286 4.27849 5.1902
254 3 7.98114 1.2114 7.31521
235 3 10.6771 4.2848 5.21222
275 3 10.7229 1.23483 7.38363
286 3 6.61233 3.48839 7.38554
259 3 9.37391 3.54247 7.42763
306 3 6.7103 2.0194 9.47301
327 3 9.36619 2.00861 9.55331
291 3 7.98984 4.29255 9.4612
331 3 10.5845 4.39597 9.46289
33 1 7.22413 1.36358 11.8524
47 1 7.8721 4.22518 12.9548
81 2 6.93061 1.2109 12.8428
39 1 8.68341 3.35822 11.7221
20 1 10.2629 4.15798 12.6409
83 2 8.50895 3.53256 12.8276
37 1 7.47866 2.02392 13.2016
120 3 9.27939 6.61906 0.904536
125 3 6.68802 6.60896 0.945182
153 3 6.74613 8.20801 3.01333
172 3 7.94329 5.82444 3.05608
176 3 9.40712 8.20175 3.08946
132 3 7.94128 9.04909 0.89036
148 3 10.7335 5.84112 3.03996
104 3 10.6884 9.06994 1.0185
200 3 10.7571 8.98263 5.27976
216 3 9.27889 6.60304 5.16433
221 3 6.67239 6.72432 5.26794
228 3 7.99869 9.01451 5.31028
272 3 9.33983 8.15927 7.34276
296 3 10.5418 9.00495 9.51576
265 3 8.02883 5.7839 7.40825
249 3 6.67623 8.21967 7.36151
312 3 9.28425 6.6888 9.44541
317 3 6.6197 6.70934 9.40594
324 3 7.90432 9.00035 9.47919
244 3 10.6572 5.89179 7.36322
60 1 7.60751 8.01834 11.8657
8 1 8.91731 8.81817 11.5802
74 2 10.5109 8.90869 11.7173
72 2 6.71435 5.97649 12.5649
87 2 7.92127 8.93266 11.67
21 1 5.75079 6.24021 12.565
12 1 6.83015 5.83126 11.4812
113 3 6.64093 11.3919 0.885606
136 3 9.35483 11.4123 0.957153
160 3 8.03057 10.4937 3.06738
164 3 9.39543 12.92 3.02345
190 3 6.69377 12.8505 2.99096
99 3 8.00034 13.6428 0.889185
180 3 10.6988 10.5966 3.0844
140 3 10.7257 13.6666 0.901816
276 3 10.7056 10.5929 7.34809
209 3 6.63969 11.3034 5.21482
232 3 9.35991 11.3601 5.20638
195 3 8.03122 13.5521 5.15052
260 3 9.29242 12.7699 7.34175
236 3 10.6902 13.6026 5.10972
218 3 5.42139 13.6111 5.21511
253 3 7.97405 10.5678 7.38071
285 3 6.67796 12.8999 7.43568
328 3 9.23072 11.2811 9.42921
305 3 6.58164 11.4071 9.51261
292 3 8.15582 13.6216 9.50388
332 3 10.6708 13.6291 9.36007
54 1 5.5309 11.5106 12.368
82 2 6.58298 11.2778 11.8915
30 1 6.91578 10.4128 12.0663
10 1 9.08996 13.4648 11.8928
43 1 7.44599 12.9695 12.113
89 2 8.07943 13.46 11.6685
85 2 10.7176 13.5499 11.6512
119 3 9.30762 15.974 0.916474
126 3 6.69178 16.0413 0.835128
154 3 6.68893 17.511 3.00934
171 3 8.01982 15.1958 2.98251
175 3 9.36943 17.5469 3.01944
131 3 8.01344 18.2261 0.934814
103 3 10.6218 18.2923 0.926368
147 3 10.7586 15.2351 3.03229
227 3 8.02347 18.3238 5.17312
215 3 9.38751 15.935 5.22265
222 3 6.73566 15.9109 5.22411
266 3 8.05049 15.1617 7.2105
199 3 10.6907 18.2337 5.31564
250 3 6.64603 17.5153 7.43132
271 3 9.31041 17.5389 7.39305
318 3 6.715 15.8982 9.43862
311 3 9.36838 15.9767 9.46177
323 3 7.95944 18.3464 9.48945
243 3 10.6452 15.2353 7.36563
295 3 10.7351 18.3185 9.40847
52 1 7.94118 18.5741 12.561
46 1 10.4059 18.3227 13.0098
91 2 8.49974 17.5777 12.5321
53 1 6.95289 15.0256 12.1567
27 1 7.24418 16.756 12.286
96 2 6.56922 15.8843 11.8274
51 1 9.12949 17.3347 11.7701
107 3 12.061 2.00498 1.00605
127 3 14.7819 2.05696 1.06532
151 3 13.4157 1.16612 3.06654
155 3 14.6272 3.51339 3.04588
183 3 12.0465 3.51171 3.1148
111 3 13.4336 4.32417 1.05607
129 3 16.0898 4.22957 1.00345
169 3 16.0024 1.167 3.10688
203 3 12.0222 1.92218 5.1748
223 3 14.7845 2.05808 5.31695
207 3 13.3979 4.28903 5.2634
225 3 16.1033 4.35483 5.22082
279 3 12.0207 3.47993 7.44345
251 3 14.7228 3.58024 7.37942
247 3 13.4128 1.20859 7.36144
299 3 12.005 1.91086 9.44054
319 3 14.7467 2.10752 9.47069
303 3 13.3805 4.20058 9.50014
321 3 16.0014 4.29198 9.64017
267 3 16.1439 1.22907 7.40597
57 1 11.6068 3.68306 13.1516
29 1 15.1426 2.73469 11.758
68 2 12.7015 2.10965 14.0578
7 1 15.6771 0.9199 12.1077
24 1 11.9349 1.61098 13.708
80 2 15.1524 2.48526 12.7844
28 1 14.1603 2.12959 13.0521
76 2 11.3162 4.15182 12.3338
42 1 10.9945 0.390066 11.9949
38 1 12.5414 2.08415 15.1032
115 3 14.7364 6.58006 0.972166
144 3 12.025 6.71357 0.962427
168 3 11.9954 8.25337 3.06133
187 3 13.3893 5.88023 3.02396
192 3 14.7212 8.18175 3.10709
124 3 13.4449 9.02743 0.940405
157 3 16.0636 5.8536 3.03825
98 3 16.1418 8.90477 0.997559
211 3 14.7513 6.67059 5.17433
240 3 11.9419 6.64642 5.24801
220 3 13.3608 8.98489 5.21667
194 3 16.0528 8.96952 5.24244
255 3 16.0797 5.87513 7.38079
283 3 13.3349 5.81582 7.42583
264 3 12.0063 8.16005 7.50194
287 3 14.6968 8.19363 7.38242
307 3 14.7548 6.61871 9.45203
336 3 12.0168 6.62948 9.52605
316 3 13.4313 9.05189 9.38977
289 3 16.0756 9.05323 9.36123
48 1 12.7529 6.76522 12.0414
84 2 14.7708 6.88623 11.8913
14 1 14.8653 7.73748 12.0058
4 1 15.2994 6.33923 12.1966
44 1 11.6386 5.66099 11.9257
88 2 11.8538 6.70282 11.7594
18 1 10.9828 7.98323 11.7255
108 3 12.1024 11.2553 0.899225
128 3 14.752 11.315 0.991563
152 3 13.433 10.5541 3.0252
156 3 14.8046 12.9158 3.01743
184 3 12.1343 12.928 3.00919
112 3 13.3563 13.6024 0.916341
170 3 16.1018 10.5163 3.06812
130 3 16.0558 13.675 0.873127
268 3 16.0334 10.5069 7.28403
204 3 12.0462 11.2109 5.19251
224 3 14.7825 11.3084 5.16747
208 3 13.4188 13.6464 5.2134
252 3 14.7982 12.9072 7.22419
280 3 12.053 12.862 7.31288
248 3 13.4109 10.4812 7.31085
226 3 16.1336 13.6654 5.27267
320 3 14.7378 11.4312 9.29019
300 3 11.9602 11.3593 9.40692
304 3 13.4744 13.6384 9.404
322 3 16.1231 13.7153 9.36129
75 2 14.288 10.1654 12.2507
61 1 14.0807 13.0717 11.7358
93 2 14.0182 13.3005 12.8179
79 2 15.981 11.7111 14.2758
69 2 11.7717 11.0613 11.7709
9 1 11.4734 12.8081 11.8078
22 1 12.6556 10.8756 11.9918
35 1 11.1219 10.0469 11.9346
41 1 14.7218 12.8728 13.4311
19 1 14.8929 10.8988 12.5842
23 1 14.7384 9.83383 11.3841
63 1 15.9197 11.409 15.1971
116 3 14.8355 15.9989 0.957722
143 3 12.0612 16.1312 0.874075
167 3 12.0796 17.5113 3.07884
188 3 13.4413 15.2343 3.04642
191 3 14.8329 17.5115 2.98595
123 3 13.3981 18.2364 0.904558
97 3 16.0766 18.38 0.92394
158 3 16.0699 15.169 3.02625
212 3 14.7195 15.9791 5.21594
239 3 12.0122 15.9066 5.18827
219 3 13.5342 18.2623 5.17674
256 3 16.1299 15.264 7.34567
193 3 16.0317 18.2877 5.19271
284 3 13.3989 15.211 7.36947
263 3 12.0862 17.5743 7.39237
288 3 14.7426 17.4827 7.48721
308 3 14.7465 15.9416 9.47745
335 3 12.0653 15.9999 9.44989
315 3 13.4237 18.3887 9.50295
290 3 16.1299 18.303 9.57628
95 2 11.9796 15.8215 12.0787
49 1 11.1079 14.3743 12.0899
15 1 11.8453 16.686 12.3864
59 1 15.0883 15.4861 12.5826
3 1 15.2587 16.9802 11.9315
71 2 14.6947 16.3089 11.8758
25 1 12.931 15.6658 12.1745
67 2 15.8512 18.6321 12.0253
86 2 11.3238 18.5944 12.7757
