ITEM: TIMESTEP
18404000
ITEM: NUMBER OF ATOMS
336
ITEM: BOX BOUNDS pp pp pp
0.0000000000000000e+00 1.6167135238600000e+01
0.0000000000000000e+00 1.8668199539200000e+01
0.0000000000000000e+00 2.5747400283800001e+01
ITEM: ATOMS id type x y z
117 3 1.27289 1.97308 0.94586
141 3 4.02155 1.89174 1.00035
145 3 2.61333 1.27086 3.04463
165 3 4.04388 3.51226 3.07936
173 3 1.2637 3.51748 3.04774
101 3 2.65771 4.25128 1.03719
186 3 5.31871 1.17519 3.07427
121 3 5.32404 4.22968 0.956221
213 3 1.28264 2.00659 5.12634
237 3 3.96578 2.01622 5.2648
197 3 2.61438 4.25215 5.05754
217 3 5.234 4.49078 5.23654
241 3 2.5218 1.262 7.2987
261 3 3.87858 3.59679 7.34125
282 3 5.34511 1.1121 7.37058
269 3 1.21986 3.59239 7.42956
333 3 4.04667 2.01172 9.36655
309 3 1.28763 2.06067 9.49349
293 3 2.55475 4.36394 9.44695
313 3 5.23579 4.39546 9.43569
2 1 3.22562 0.533804 12.1263
77 2 4.03457 2.09719 12.5951
58 1 4.9861 2 12.5655
11 1 3.88757 2.95864 12.3863
17 1 0.596021 4.30902 12.8734
26 1 0.749825 0.155403 12.0833
105 3 3.89959 6.59427 0.945245
133 3 1.27614 6.64133 0.870315
161 3 1.27773 8.18003 3.01885
177 3 2.55837 5.89046 2.93532
181 3 4.00021 8.16727 3.01923
137 3 2.62528 8.97886 0.98706
109 3 5.29292 8.97973 0.899843
149 3 5.26185 5.9155 3.0349
245 3 5.3537 5.84355 7.29412
201 3 3.99832 6.7926 5.17868
229 3 1.29509 6.62661 5.1663
233 3 2.58339 9.02494 5.15664
277 3 4.05612 8.30906 7.29322
273 3 2.58267 5.87269 7.26996
257 3 1.35588 8.18531 7.33381
205 3 5.35762 9.01423 5.14083
325 3 1.36335 6.65109 9.3946
297 3 3.96435 6.61635 9.48412
329 3 2.56456 8.96985 9.50229
301 3 5.24831 9.06184 9.51289
40 1 5.30116 7.43495 10.8213
55 1 3.83973 8.41012 11.6569
32 1 1.08749 4.93748 11.5139
92 2 3.48835 8.43983 12.7481
78 2 3.81959 5.34403 12.5603
13 1 3.58197 5.10357 11.7008
45 1 3.08032 5.48013 13.1951
56 1 3.15033 7.54429 12.7985
73 2 0.923278 5.18771 12.5597
118 3 1.32775 11.2716 0.94558
142 3 4.00657 11.4063 0.962319
146 3 2.58193 10.504 2.95138
166 3 4.00778 12.904 3.03911
174 3 1.24699 12.8503 3.00463
102 3 2.61821 13.6763 0.933013
122 3 5.33143 13.5984 0.92866
185 3 5.25069 10.5874 3.00403
214 3 1.25961 11.3711 5.23387
238 3 3.93482 11.3446 5.15733
198 3 2.67058 13.6945 5.24512
242 3 2.6723 10.5576 7.27162
262 3 4.03776 12.876 7.2987
270 3 1.34789 12.9191 7.32009
281 3 5.3501 10.5834 7.39279
314 3 5.31411 13.7967 9.45676
334 3 3.86312 11.3197 9.33673
310 3 1.28639 11.2921 9.4307
294 3 2.59664 13.7474 9.44774
65 2 4.25804 12.3808 12.3667
5 1 2.36105 9.85725 13.0396
94 2 1.88324 10.6049 12.7316
31 1 0.716219 11.2526 13.9411
16 1 3.47006 11.9467 12.8314
62 1 1.82375 10.5369 11.8412
1 1 4.07533 12.7098 11.4175
34 1 2.03762 13.6717 13.4165
106 3 4.03758 15.9903 0.962249
134 3 1.25137 16.0582 0.961432
162 3 1.20854 17.6033 3.04048
178 3 2.5699 15.2234 2.94308
182 3 3.94627 17.5925 3.08479
138 3 2.67892 18.2957 0.938698
110 3 5.35068 18.3056 0.975202
150 3 5.37993 15.2022 3.00312
246 3 5.36421 15.1234 7.33553
206 3 5.33923 18.222 5.2154
202 3 3.99245 15.9783 5.14583
230 3 1.34223 16.0178 5.23897
234 3 2.65223 18.3236 5.199
274 3 2.58832 15.2132 7.33097
258 3 1.25754 17.57 7.43302
278 3 3.9244 17.5419 7.44893
326 3 1.18787 16.0177 9.40971
298 3 3.90165 15.9086 9.48097
330 3 2.61255 18.317 9.56941
302 3 5.34429 18.3713 9.44273
36 1 3.15414 17.6732 12.2516
66 2 2.62943 18.5135 11.9158
70 2 3.91764 16.0689 11.8113
6 1 3.23454 15.404 12.0006
64 1 4.92445 15.8067 11.706
90 2 1.87993 14.5033 12.6727
50 1 2.01025 14.0037 11.7382
114 3 6.64466 1.93879 0.961761
135 3 9.31871 2.03384 0.958857
159 3 8.02804 1.18026 3.01317
163 3 9.31358 3.51776 3.13463
189 3 6.60809 3.42406 3.09378
100 3 8.06252 4.32655 1.00268
179 3 10.6687 1.21486 2.96888
139 3 10.6805 4.22563 1.02126
210 3 6.64734 1.93411 5.2469
231 3 9.39108 1.97814 5.22964
196 3 7.98153 4.27672 5.19443
254 3 7.97512 1.21717 7.31268
235 3 10.6725 4.27764 5.19899
286 3 6.60292 3.47029 7.37087
259 3 9.38084 3.54741 7.41509
306 3 6.71368 2.03045 9.47592
327 3 9.36032 2.00063 9.545
291 3 7.98893 4.30034 9.4702
275 3 10.7245 1.22424 7.3769
331 3 10.5783 4.4 9.45011
47 1 7.85395 4.34132 12.9563
39 1 8.70056 3.47881 11.8459
33 1 7.03614 1.35958 11.7906
37 1 7.65026 2.07206 13.1019
81 2 6.94064 1.21098 12.8761
20 1 10.3183 4.29396 12.6296
83 2 8.5328 3.50178 12.8399
120 3 9.30262 6.6234 0.912221
125 3 6.69684 6.60944 0.940999
153 3 6.74063 8.21442 3.00817
172 3 7.93938 5.82348 3.0652
176 3 9.40036 8.21193 3.08995
132 3 7.94767 9.03473 0.895166
148 3 10.7125 5.84928 3.03928
104 3 10.6934 9.08775 1.00952
200 3 10.7506 8.99366 5.28422
216 3 9.2874 6.60244 5.1659
221 3 6.68624 6.74525 5.26442
228 3 7.99611 9.01401 5.30629
249 3 6.67565 8.22914 7.35586
272 3 9.33989 8.16747 7.34357
265 3 8.04042 5.77376 7.42116
244 3 10.657 5.89971 7.35662
312 3 9.2914 6.6821 9.43993
317 3 6.61749 6.71529 9.40628
324 3 7.89309 8.99138 9.49404
296 3 10.5463 9.00218 9.506
8 1 9.02562 8.70351 11.6163
74 2 10.4934 8.9036 11.7208
21 1 5.76804 6.10628 12.5929
12 1 6.80483 5.86433 11.4915
87 2 7.92558 8.90739 11.6566
60 1 7.65353 7.99336 11.7776
72 2 6.69372 5.93834 12.5521
113 3 6.62301 11.3907 0.884881
136 3 9.34055 11.4085 0.957795
160 3 8.01804 10.4937 3.07307
164 3 9.38602 12.9066 3.00769
190 3 6.69996 12.8621 2.99614
99 3 7.99869 13.6256 0.891537
140 3 10.7296 13.6654 0.896785
180 3 10.6898 10.5885 3.09144
276 3 10.692 10.5979 7.3325
209 3 6.62358 11.2968 5.22236
232 3 9.36644 11.3462 5.20411
195 3 8.03206 13.546 5.15121
260 3 9.28944 12.7771 7.33174
236 3 10.6995 13.6033 5.10706
218 3 5.43054 13.6179 5.2091
253 3 7.95879 10.5494 7.39273
285 3 6.67123 12.9137 7.41212
305 3 6.58214 11.4102 9.51391
328 3 9.23838 11.2924 9.41584
292 3 8.15278 13.6089 9.50719
332 3 10.672 13.6389 9.33981
85 2 10.7029 13.5455 11.6786
30 1 6.84567 10.3122 12.2889
43 1 7.41072 12.8418 12.0724
10 1 9.01553 13.3938 11.9481
54 1 5.51084 11.5121 12.3911
89 2 8.06957 13.4745 11.6548
82 2 6.59369 11.2486 11.9185
119 3 9.31019 15.9759 0.911662
126 3 6.68601 16.0348 0.840897
154 3 6.68144 17.4996 3.01431
171 3 8.02927 15.1989 2.98514
175 3 9.36632 17.5387 3.01468
131 3 8.01407 18.2258 0.942549
103 3 10.6279 18.2662 0.920174
147 3 10.7604 15.2364 3.00393
215 3 9.37182 15.9353 5.21049
222 3 6.73804 15.8918 5.21832
227 3 8.03538 18.3261 5.17026
199 3 10.696 18.232 5.30672
266 3 8.05129 15.1453 7.20902
250 3 6.6572 17.5161 7.43746
271 3 9.29826 17.5275 7.38521
318 3 6.70245 15.8953 9.43261
311 3 9.36452 15.9796 9.46642
323 3 7.94808 18.3342 9.48907
243 3 10.6409 15.2307 7.36048
295 3 10.7521 18.3173 9.40365
52 1 8.1577 18.472 12.6348
46 1 10.4345 18.2982 13.1386
91 2 8.52402 17.6057 12.5594
53 1 7.01931 15.0927 12.115
27 1 7.31787 16.6632 12.2369
96 2 6.57904 15.8803 11.825
51 1 9.16108 17.2547 11.8406
107 3 12.0505 2.00865 1.00858
127 3 14.798 2.05375 1.04968
151 3 13.4214 1.16769 3.06031
155 3 14.6333 3.51031 3.04796
183 3 12.0516 3.51338 3.1191
111 3 13.4287 4.3367 1.06952
129 3 16.0931 4.22586 1.00924
169 3 15.9902 1.16934 3.09959
203 3 12.0187 1.92386 5.17064
223 3 14.7945 2.05309 5.30905
207 3 13.3933 4.28305 5.26918
225 3 16.114 4.35739 5.21913
267 3 16.1432 1.24075 7.42266
321 3 15.9982 4.30388 9.63612
251 3 14.7181 3.58912 7.36011
279 3 12.0129 3.46053 7.43965
247 3 13.4149 1.21087 7.35931
299 3 12.0149 1.91044 9.44355
319 3 14.7355 2.11592 9.48008
303 3 13.3636 4.2027 9.50117
68 2 12.7012 2.12587 14.0958
29 1 14.9996 2.87348 11.7103
7 1 15.7157 0.848019 12.1183
80 2 15.1238 2.4336 12.8028
24 1 12.0516 1.38538 13.8293
57 1 11.6517 3.81281 13.1714
28 1 14.0925 2.01201 13.1787
76 2 11.3195 4.07975 12.3494
42 1 11.117 0.326625 11.8791
38 1 12.7272 1.99936 15.1297
115 3 14.723 6.58366 0.974929
144 3 12.0145 6.71576 0.967481
168 3 12.0023 8.25765 3.03385
187 3 13.3745 5.86202 3.02979
192 3 14.7172 8.17833 3.10019
124 3 13.4435 9.0313 0.942318
98 3 16.1607 8.89129 1.00445
157 3 16.0736 5.83871 3.03329
211 3 14.7394 6.65477 5.17419
240 3 11.9431 6.65029 5.26825
220 3 13.3613 8.97461 5.21158
194 3 16.0517 8.95826 5.24208
255 3 16.0713 5.88102 7.3801
283 3 13.3274 5.81168 7.42201
289 3 16.0604 9.0543 9.37403
264 3 11.988 8.16462 7.51012
287 3 14.7057 8.21015 7.38544
336 3 12.0191 6.64662 9.51963
307 3 14.7459 6.62026 9.46355
316 3 13.43 9.04335 9.39157
4 1 15.6349 6.37451 12.1645
44 1 11.6128 5.71386 11.9539
14 1 14.8979 7.78809 12.0438
84 2 14.778 6.86432 11.8598
48 1 12.836 6.81524 11.9656
88 2 11.8647 6.71836 11.7827
18 1 10.8672 7.93569 11.7269
108 3 12.1013 11.2735 0.900082
128 3 14.7771 11.3255 0.999545
152 3 13.4255 10.5439 3.03365
156 3 14.8097 12.9155 3.0284
184 3 12.1335 12.93 2.99937
112 3 13.3587 13.5961 0.91744
170 3 16.1141 10.5152 3.07214
130 3 16.0454 13.659 0.895862
204 3 12.033 11.2289 5.20311
224 3 14.7772 11.3179 5.15928
208 3 13.4226 13.6404 5.19884
268 3 16.0393 10.4974 7.26976
252 3 14.8024 12.9037 7.23081
280 3 12.0643 12.8745 7.30563
248 3 13.4174 10.4797 7.32
226 3 16.1514 13.6808 5.2708
300 3 11.9601 11.3632 9.42248
320 3 14.7489 11.4173 9.28476
304 3 13.4693 13.6323 9.40258
322 3 16.1186 13.7274 9.36971
61 1 14.2246 13.081 11.7992
79 2 15.9758 11.6892 14.274
19 1 14.9961 10.9419 12.5089
75 2 14.2861 10.1752 12.2448
93 2 14.0283 13.3216 12.817
35 1 11.1221 10.1629 11.8566
9 1 11.48 12.7561 11.9309
69 2 11.758 11.0822 11.7677
22 1 12.6945 10.7617 12.024
41 1 14.7302 12.7699 13.4928
23 1 14.6858 9.8197 11.4238
63 1 15.9774 11.4936 15.1799
116 3 14.8296 16.0019 0.956851
143 3 12.0708 16.1181 0.88411
167 3 12.075 17.5356 3.08007
188 3 13.4358 15.229 3.05365
191 3 14.8347 17.4926 2.98933
123 3 13.4124 18.2303 0.882892
97 3 16.0682 18.3833 0.934518
158 3 16.0782 15.1681 3.0356
212 3 14.7316 15.9853 5.22246
239 3 12.0026 15.9193 5.19447
219 3 13.5308 18.2742 5.16789
256 3 16.1307 15.258 7.33674
193 3 16.0369 18.283 5.19946
284 3 13.4192 15.2263 7.36396
288 3 14.7459 17.4935 7.48897
263 3 12.0838 17.5722 7.39144
308 3 14.7445 15.9482 9.47333
335 3 12.0588 15.9921 9.45787
315 3 13.42 18.3853 9.50427
290 3 16.1363 18.3082 9.58077
59 1 15.1241 15.4155 12.4384
25 1 12.843 15.7596 12.5188
71 2 14.7042 16.3073 11.8692
49 1 11.1733 14.4122 12.0607
95 2 11.9841 15.8206 12.0556
15 1 11.6651 16.6592 12.3703
3 1 15.2082 17.0223 12.1058
86 2 11.3223 18.6634 12.7795
67 2 15.8425 18.637 12.0131
