ITEM: TIMESTEP
18404000
ITEM: NUMBER OF ATOMS
336
ITEM: BOX BOUNDS pp pp pp
0.0000000000000000e+00 1.6167135238600000e+01
0.0000000000000000e+00 1.8668199539200000e+01
0.0000000000000000e+00 2.5747400283800001e+01
ITEM: ATOMS id type x y z
117 3 1.25768 1.95504 0.939747
141 3 3.99956 1.88279 0.999829
145 3 2.61087 1.26357 3.04955
165 3 4.03222 3.53527 3.0511
173 3 1.24964 3.52072 3.04784
101 3 2.65425 4.27352 1.04979
186 3 5.34581 1.16893 3.07438
121 3 5.32372 4.22699 0.977226
213 3 1.29348 2.00598 5.13748
237 3 3.97004 2.002 5.27252
197 3 2.60971 4.23677 5.03608
217 3 5.24151 4.49396 5.25731
241 3 2.52891 1.24877 7.3068
282 3 5.34948 1.11481 7.37556
261 3 3.86724 3.60367 7.35825
269 3 1.21999 3.56688 7.42541
333 3 4.05899 2.02904 9.37468
309 3 1.28338 2.04742 9.48052
293 3 2.55795 4.38375 9.42962
313 3 5.23522 4.3763 9.43222
11 1 3.96305 3.01213 12.6616
77 2 4.09968 2.09178 12.5978
2 1 3.19922 0.733569 12.2816
58 1 4.8872 1.67482 12.4498
17 1 0.49145 4.29318 12.6971
26 1 0.791904 0.0646651 12.104
105 3 3.9234 6.60387 0.939445
133 3 1.26991 6.63711 0.891193
161 3 1.28028 8.17711 3.04018
177 3 2.57296 5.88257 2.95824
181 3 4.01818 8.1771 3.00651
137 3 2.61339 8.98375 0.996126
109 3 5.28689 8.9755 0.890747
149 3 5.27673 5.91834 3.04624
245 3 5.33467 5.85221 7.31773
201 3 3.98744 6.76248 5.18148
229 3 1.29747 6.62158 5.15354
233 3 2.57207 9.00934 5.13784
277 3 4.03784 8.31884 7.28654
257 3 1.33155 8.18549 7.32743
273 3 2.59964 5.86304 7.27403
205 3 5.35472 9.03815 5.10975
301 3 5.26923 9.05549 9.49856
325 3 1.3548 6.65065 9.38076
297 3 3.95985 6.61867 9.47796
329 3 2.56288 8.9694 9.50805
40 1 5.13951 7.3756 10.3261
55 1 3.63897 8.50762 11.6799
92 2 3.46962 8.41386 12.7979
56 1 2.94011 7.53439 12.6307
73 2 0.966447 5.15783 12.5393
13 1 3.60605 5.10423 11.526
45 1 3.01587 5.29254 13.2422
78 2 3.80629 5.32879 12.4854
32 1 1.19045 5.05183 11.5643
118 3 1.32287 11.2626 0.960469
142 3 4.0139 11.4116 0.942787
146 3 2.57279 10.4979 2.96031
166 3 3.99437 12.8947 3.03307
174 3 1.24845 12.8704 3.01643
102 3 2.62196 13.6524 0.95075
122 3 5.29794 13.5836 0.90529
185 3 5.259 10.5961 3.0061
214 3 1.24343 11.3694 5.23802
238 3 3.91063 11.3395 5.16313
198 3 2.68547 13.6871 5.23489
242 3 2.66644 10.5632 7.28677
262 3 4.03444 12.8573 7.29243
270 3 1.34931 12.9219 7.31984
281 3 5.34855 10.6007 7.38408
310 3 1.28066 11.2774 9.45972
334 3 3.85552 11.3409 9.3332
294 3 2.56329 13.7461 9.42464
314 3 5.30209 13.8028 9.44141
31 1 0.686683 11.2276 14.0128
62 1 1.80025 10.5389 11.7176
5 1 2.40068 9.91021 13.0356
94 2 1.80015 10.6565 12.737
16 1 3.39674 11.8234 12.6476
65 2 4.29069 12.3578 12.4085
34 1 2.03568 13.7414 13.3527
1 1 4.00234 12.7181 11.4589
106 3 4.053 15.9993 0.968208
134 3 1.21194 16.041 0.970551
162 3 1.21422 17.6041 3.04095
178 3 2.5653 15.2203 2.95212
182 3 3.97275 17.6326 3.07942
138 3 2.66947 18.3282 0.945849
110 3 5.36196 18.3223 0.967395
246 3 5.35569 15.1485 7.35496
202 3 3.98287 15.9814 5.13934
230 3 1.34043 16.013 5.23232
234 3 2.64274 18.3127 5.19923
206 3 5.35631 18.2107 5.17906
274 3 2.57846 15.2116 7.34587
258 3 1.26435 17.5867 7.45109
278 3 3.90836 17.5417 7.48066
298 3 3.92608 15.9046 9.5006
326 3 1.20344 16.0263 9.41051
330 3 2.60271 18.3156 9.56914
302 3 5.32028 18.4051 9.43333
70 2 3.93316 16.0742 11.8382
6 1 3.19487 15.4826 12.1494
36 1 3.1402 17.6485 12.6502
64 1 4.94899 15.977 11.8567
66 2 2.65682 18.5002 11.9045
90 2 1.88075 14.4416 12.7037
50 1 1.92932 14.0148 11.7214
114 3 6.64593 1.92053 0.940492
135 3 9.3165 2.03821 0.966057
159 3 8.02224 1.18328 3.00214
163 3 9.29406 3.48857 3.13489
189 3 6.61042 3.43098 3.07171
100 3 8.05859 4.359 1.00386
179 3 10.6884 1.20874 2.96923
139 3 10.6912 4.21173 1.00906
210 3 6.6605 1.94101 5.24035
231 3 9.39115 1.97715 5.23002
196 3 7.99074 4.28275 5.21017
254 3 7.98072 1.19386 7.30116
235 3 10.6919 4.28821 5.2027
286 3 6.62497 3.4688 7.36316
259 3 9.38192 3.54123 7.42844
275 3 10.7188 1.23944 7.36572
291 3 7.99502 4.30993 9.47572
327 3 9.36119 2.00306 9.55158
306 3 6.72091 2.03468 9.47623
331 3 10.5933 4.38119 9.47732
47 1 7.93645 4.3399 12.8754
20 1 10.4964 4.2237 12.8138
37 1 7.51018 1.99857 12.9691
81 2 6.95835 1.18152 12.8034
83 2 8.49464 3.53579 12.8099
33 1 6.90946 1.19882 11.8043
39 1 8.53058 3.28837 11.9241
120 3 9.30322 6.61332 0.909606
125 3 6.67615 6.59856 0.976146
153 3 6.74393 8.25162 3.00421
172 3 7.94032 5.81471 3.04944
176 3 9.3918 8.23977 3.10238
132 3 7.97892 9.00891 0.89195
148 3 10.7121 5.85049 3.04384
104 3 10.6988 9.07031 1.03856
216 3 9.31693 6.60179 5.16744
221 3 6.69242 6.75274 5.26522
228 3 8.00981 9.00461 5.30344
200 3 10.7447 8.9957 5.27018
272 3 9.34144 8.16184 7.34922
244 3 10.6256 5.9136 7.33032
296 3 10.5482 8.98424 9.50464
265 3 8.02409 5.76837 7.4218
249 3 6.64686 8.2212 7.3823
312 3 9.27597 6.68732 9.43588
317 3 6.60519 6.72497 9.39266
324 3 7.88862 8.99925 9.49518
60 1 7.53996 8.01349 11.9311
8 1 9.10407 8.82398 11.6558
74 2 10.4645 8.87136 11.7698
72 2 6.62197 5.89113 12.5286
87 2 7.93387 8.92215 11.6368
21 1 5.71963 6.07222 12.548
12 1 6.72136 5.62026 11.588
113 3 6.64246 11.3786 0.910802
136 3 9.35633 11.402 0.95028
160 3 8.05511 10.4944 3.05148
164 3 9.38178 12.9069 2.9947
190 3 6.69582 12.8483 3.00768
99 3 8.01093 13.6469 0.902885
140 3 10.7361 13.6519 0.911271
180 3 10.6972 10.5733 3.09311
276 3 10.6933 10.5814 7.32672
209 3 6.63133 11.2831 5.24465
232 3 9.37453 11.3416 5.19483
195 3 8.04516 13.5659 5.15483
260 3 9.29269 12.7952 7.32989
236 3 10.6775 13.6097 5.10316
218 3 5.42007 13.625 5.1847
332 3 10.6547 13.6268 9.36962
253 3 7.96194 10.5407 7.39137
285 3 6.68269 12.9103 7.40245
328 3 9.25282 11.3039 9.43535
305 3 6.57839 11.3904 9.49739
292 3 8.13669 13.6173 9.518
85 2 10.7476 13.5306 11.6666
82 2 6.56022 11.2751 11.9408
43 1 7.44148 12.7426 11.9632
54 1 5.58955 11.3363 12.2848
10 1 9.06366 13.232 11.871
30 1 6.52983 10.2566 12.2107
89 2 8.09368 13.5153 11.6372
119 3 9.29804 15.9763 0.921436
126 3 6.70162 16.0223 0.828707
154 3 6.70229 17.4991 3.01279
171 3 8.02828 15.1961 3.0071
175 3 9.36468 17.5355 3.01272
131 3 8.0358 18.2379 0.91391
103 3 10.6506 18.2806 0.905799
147 3 10.7404 15.2264 3.01748
150 3 5.39565 15.2201 3.01021
199 3 10.6991 18.2237 5.32007
215 3 9.40317 15.9284 5.20504
222 3 6.75565 15.9207 5.21906
227 3 8.04603 18.3177 5.17339
266 3 8.01822 15.1354 7.22701
271 3 9.28358 17.5287 7.39792
250 3 6.66476 17.5038 7.40891
318 3 6.71202 15.9177 9.46032
311 3 9.35706 15.9723 9.48272
323 3 7.9759 18.3123 9.47229
243 3 10.6297 15.2501 7.38288
295 3 10.7443 18.3024 9.40788
52 1 8.10547 18.5011 12.624
53 1 6.95465 14.9038 12.0596
51 1 9.12533 17.5612 11.834
27 1 7.33794 16.542 12.0496
91 2 8.53657 17.5876 12.5897
96 2 6.57705 15.908 11.8295
46 1 10.448 18.3419 13.064
107 3 12.0414 2.0076 0.994565
127 3 14.7912 2.03153 1.05441
151 3 13.4395 1.13623 3.05173
155 3 14.6317 3.51663 3.06659
183 3 12.0302 3.51853 3.13267
111 3 13.4326 4.31569 1.0676
129 3 16.0914 4.2223 1.00333
169 3 16.0058 1.15758 3.11813
203 3 12.0109 1.94961 5.18108
223 3 14.7901 2.0362 5.3179
207 3 13.4085 4.28598 5.23214
225 3 16.1161 4.35933 5.21802
267 3 16.1427 1.24377 7.42636
279 3 12.0109 3.46977 7.44403
247 3 13.4364 1.20633 7.36453
251 3 14.6984 3.57092 7.38776
299 3 12.0337 1.91119 9.44609
319 3 14.7368 2.09574 9.49993
303 3 13.3862 4.21652 9.50706
321 3 15.9877 4.29343 9.64558
24 1 11.8652 1.64266 13.7404
29 1 14.8607 2.67859 11.9416
28 1 14.2735 2.01056 13.0952
7 1 15.4952 0.922508 12.2644
57 1 11.7386 3.50817 13.0322
68 2 12.6831 2.21101 14.07
80 2 15.0879 2.39384 12.8055
42 1 11.2178 0.279632 11.7854
76 2 11.2639 4.13381 12.3433
86 2 11.3492 0.0162326 12.8209
38 1 12.5699 2.1552 15.0166
115 3 14.7445 6.58366 0.961835
144 3 12.0247 6.71932 0.976628
168 3 12.0178 8.25051 3.03996
187 3 13.3783 5.86706 3.03845
192 3 14.7231 8.17359 3.08586
124 3 13.4503 9.03035 0.917736
157 3 16.0596 5.82555 3.06984
98 3 16.1658 8.88174 0.986792
211 3 14.7013 6.6503 5.18207
240 3 11.9604 6.64613 5.23747
220 3 13.3643 9.00265 5.23187
194 3 16.0554 8.97161 5.23379
255 3 16.0619 5.88651 7.35382
283 3 13.3118 5.81777 7.43554
264 3 11.9914 8.14802 7.49455
289 3 16.0524 9.03427 9.36551
287 3 14.6828 8.19889 7.37931
307 3 14.7485 6.61234 9.44652
336 3 12.0201 6.65283 9.50868
316 3 13.4269 9.05127 9.38919
18 1 11.1445 8.28593 11.7322
88 2 11.8969 6.72486 11.6974
44 1 11.6391 5.88219 12.1558
84 2 14.7537 6.82709 11.8677
14 1 14.8955 7.76128 12.1556
48 1 12.8566 6.80903 11.9536
4 1 15.4935 6.32957 12.1811
108 3 12.1048 11.2887 0.875234
128 3 14.7855 11.3038 0.988886
152 3 13.4074 10.5476 3.01478
156 3 14.8078 12.8819 3.05789
184 3 12.1269 12.9148 3.01182
112 3 13.3636 13.6106 0.923341
170 3 16.118 10.5326 3.05767
130 3 16.0549 13.6466 0.89467
204 3 12.0713 11.2544 5.21155
224 3 14.7758 11.3118 5.16885
208 3 13.434 13.6309 5.22095
252 3 14.7947 12.9115 7.23803
280 3 12.0627 12.8678 7.29922
268 3 16.0576 10.5179 7.27568
248 3 13.3759 10.4778 7.30371
226 3 16.1252 13.6904 5.27241
320 3 14.7519 11.448 9.3026
300 3 11.9852 11.3521 9.41488
304 3 13.4773 13.6236 9.39357
322 3 16.1491 13.733 9.38848
93 2 14.0015 13.3356 12.844
75 2 14.3215 10.1922 12.2261
41 1 14.688 12.9321 13.3947
69 2 11.7307 11.0642 11.7397
35 1 11.1358 9.99728 11.7525
79 2 15.9858 11.6988 14.2872
22 1 12.7601 10.7991 12.0983
19 1 15.1008 10.8412 12.5606
61 1 13.9772 12.8592 12.0428
9 1 11.3363 12.6756 11.6515
23 1 14.7292 10.0006 11.302
63 1 15.8275 11.3972 15.0777
116 3 14.8099 16.0355 0.962015
143 3 12.0711 16.1183 0.895813
167 3 12.0827 17.5364 3.07458
188 3 13.4377 15.2479 3.08936
191 3 14.8144 17.5117 2.98718
123 3 13.4282 18.2413 0.891506
97 3 16.0711 18.385 0.912331
158 3 16.0601 15.1677 3.03675
212 3 14.7432 15.9701 5.20911
239 3 11.9973 15.9189 5.18936
219 3 13.5241 18.267 5.17051
256 3 16.127 15.2576 7.33025
193 3 16.0419 18.2933 5.22914
284 3 13.4318 15.1992 7.37008
263 3 12.0707 17.5837 7.40496
288 3 14.7464 17.4835 7.48282
308 3 14.7301 15.9324 9.46388
335 3 12.0398 16.0079 9.45992
315 3 13.4292 18.3653 9.50387
290 3 16.1283 18.319 9.56503
49 1 11.1418 14.4051 11.8804
15 1 11.6752 16.6834 12.3479
25 1 12.95 15.5594 12.4488
3 1 15.2229 17.1753 12.2323
71 2 14.7457 16.262 11.8283
95 2 11.9738 15.867 12.0833
59 1 15.1835 15.4105 12.3701
67 2 15.8341 18.6332 11.9285
