ITEM: TIMESTEP
18404000
ITEM: NUMBER OF ATOMS
336
ITEM: BOX BOUNDS pp pp pp
0.0000000000000000e+00 1.6167135238600000e+01
0.0000000000000000e+00 1.8668199539200000e+01
0.0000000000000000e+00 2.5747400283800001e+01
ITEM: ATOMS id type x y z
117 3 1.24721 1.97359 0.912052
141 3 3.98787 1.90116 1.01143
145 3 2.61556 1.27046 3.05427
165 3 4.01948 3.53941 3.0371
173 3 1.25122 3.50767 3.03059
101 3 2.64721 4.26199 1.04003
121 3 5.33314 4.25397 0.956205
186 3 5.35576 1.16908 3.06238
213 3 1.27785 2.00392 5.14084
237 3 3.95721 2.00002 5.27455
197 3 2.6022 4.25886 5.04521
261 3 3.85759 3.61484 7.3531
217 3 5.21991 4.48172 5.2253
241 3 2.50162 1.24623 7.32427
282 3 5.37147 1.11326 7.3725
269 3 1.21711 3.56974 7.43665
333 3 4.06208 2.01737 9.3914
309 3 1.28954 2.02774 9.46192
293 3 2.56411 4.39621 9.42738
313 3 5.2418 4.39106 9.44061
77 2 4.10574 2.07414 12.665
11 1 4.06106 3.11609 12.3959
2 1 2.9797 0.733283 12.1298
58 1 4.91474 1.76882 12.2869
17 1 0.293613 4.41357 12.6516
105 3 3.90717 6.6038 0.942381
133 3 1.26365 6.65815 0.882319
161 3 1.2815 8.18259 3.04614
177 3 2.59698 5.87635 2.96076
181 3 4.00476 8.1655 3.01023
137 3 2.60691 8.96942 0.993985
109 3 5.3039 8.97664 0.920772
149 3 5.26305 5.94531 3.04811
98 3 0.011778 8.88107 0.983258
201 3 4.00064 6.76336 5.17756
229 3 1.30247 6.64766 5.1769
233 3 2.5757 9.02165 5.14041
205 3 5.35257 9.00507 5.08936
273 3 2.61134 5.86484 7.27216
257 3 1.34242 8.17648 7.33187
277 3 4.03392 8.31255 7.30156
245 3 5.34547 5.84071 7.3273
325 3 1.3667 6.64247 9.3912
297 3 3.9649 6.64935 9.48224
329 3 2.57751 8.96267 9.49623
301 3 5.27943 9.07257 9.51059
40 1 5.11428 7.52237 10.6248
92 2 3.43574 8.40148 12.8115
55 1 3.51505 8.59727 11.7594
13 1 3.56638 5.16471 11.4673
56 1 3.08806 7.33297 12.7872
45 1 2.91991 5.35552 13.1764
78 2 3.7919 5.29181 12.5076
73 2 0.950281 5.14373 12.5774
32 1 0.961331 5.15624 11.6347
118 3 1.31972 11.2877 0.939648
142 3 3.99564 11.4094 0.941973
146 3 2.58603 10.5246 2.95835
166 3 3.99886 12.9075 3.01274
174 3 1.27438 12.8617 3.00502
102 3 2.63593 13.6343 0.959422
122 3 5.29867 13.6111 0.925213
185 3 5.26528 10.5551 2.99985
214 3 1.26838 11.3722 5.24894
238 3 3.92828 11.3569 5.16101
198 3 2.68489 13.6706 5.23316
242 3 2.66653 10.5601 7.28466
262 3 4.05185 12.8776 7.29264
270 3 1.3503 12.9249 7.33019
281 3 5.36586 10.609 7.41237
334 3 3.82598 11.3372 9.3553
310 3 1.28643 11.2842 9.45618
294 3 2.55223 13.7293 9.42949
314 3 5.29566 13.795 9.43973
5 1 2.41543 9.75431 12.7923
62 1 1.82638 10.4711 11.7671
94 2 1.83601 10.6214 12.7035
16 1 3.39953 11.8166 12.6181
1 1 4.04041 12.6786 11.6056
65 2 4.29534 12.3316 12.4486
31 1 0.750358 11.1778 13.9566
34 1 1.9109 13.8456 13.3723
50 1 1.75276 13.8535 11.9315
106 3 4.04955 15.9938 0.956086
134 3 1.20189 16.0527 0.976212
162 3 1.22041 17.6199 3.05042
178 3 2.59906 15.2124 2.94632
182 3 3.93924 17.6175 3.07234
138 3 2.64829 18.2997 0.946352
110 3 5.36186 18.3188 0.958634
150 3 5.37671 15.2114 3.00608
202 3 3.98065 15.9748 5.14072
230 3 1.33031 16.0251 5.24055
234 3 2.64915 18.3182 5.20004
206 3 5.35559 18.2185 5.1816
274 3 2.57862 15.2105 7.32835
302 3 5.33124 18.4103 9.43413
258 3 1.25095 17.5751 7.44075
278 3 3.89546 17.5448 7.49062
326 3 1.20606 16.0058 9.3862
298 3 3.93966 15.9055 9.48402
330 3 2.58525 18.3243 9.55259
246 3 5.34391 15.1728 7.36883
36 1 3.1964 17.8254 12.5412
66 2 2.62045 18.5671 11.9353
6 1 3.39488 15.2722 11.9288
70 2 3.94825 16.0904 11.8167
64 1 4.94155 16.0493 11.9428
90 2 1.91325 14.4933 12.6554
26 1 0.812372 18.6274 11.7108
114 3 6.64607 1.93853 0.928819
135 3 9.32321 2.03917 0.963405
159 3 8.00839 1.17717 3.02447
163 3 9.29087 3.50035 3.11835
189 3 6.58929 3.43288 3.07343
100 3 8.05645 4.36625 0.999688
139 3 10.6755 4.21787 1.01677
179 3 10.6876 1.18371 2.96543
235 3 10.6937 4.27646 5.23494
210 3 6.64034 1.956 5.23698
231 3 9.37538 1.98168 5.24063
196 3 7.9819 4.28605 5.22242
254 3 7.96985 1.21498 7.29026
286 3 6.61384 3.47643 7.38105
259 3 9.34757 3.50853 7.42998
306 3 6.72694 2.02358 9.47094
327 3 9.3713 1.99595 9.52162
291 3 7.97121 4.3253 9.51077
275 3 10.74 1.22843 7.38047
331 3 10.5684 4.4008 9.4673
47 1 8.10465 4.46305 12.812
37 1 7.37394 1.99503 12.9079
39 1 8.63033 3.2725 11.8431
20 1 10.345 4.23681 12.6078
83 2 8.49192 3.51387 12.7843
33 1 7.02937 1.13537 11.6977
81 2 6.92378 1.12785 12.7536
120 3 9.28449 6.6098 0.929644
125 3 6.66429 6.61025 0.96008
153 3 6.74545 8.23504 3.01528
172 3 7.94773 5.83113 3.05641
176 3 9.39666 8.2564 3.07938
132 3 8.0086 9.00906 0.877995
148 3 10.703 5.82573 3.03992
104 3 10.6901 9.06795 1.04178
216 3 9.29426 6.61668 5.18375
221 3 6.69073 6.71043 5.2591
228 3 8.01618 8.9934 5.31888
200 3 10.7244 8.98781 5.28195
244 3 10.6376 5.90861 7.31719
272 3 9.35133 8.13844 7.34319
296 3 10.545 8.99022 9.49577
265 3 8.02573 5.76342 7.42039
249 3 6.65763 8.22504 7.38375
317 3 6.60515 6.70819 9.38566
312 3 9.29767 6.69791 9.43035
324 3 7.89219 8.98087 9.48406
8 1 9.01995 8.80848 11.754
74 2 10.4129 8.82593 11.7588
72 2 6.65977 5.96972 12.6057
21 1 5.6617 5.99815 12.6485
60 1 7.44175 8.16399 11.939
87 2 7.93591 8.99059 11.6568
12 1 6.50597 5.55214 11.5438
113 3 6.65389 11.3721 0.921218
136 3 9.37273 11.3973 0.984781
160 3 8.04939 10.4759 3.05521
164 3 9.38342 12.8804 3.00228
190 3 6.67491 12.8699 3.00063
99 3 8.02523 13.6708 0.879311
140 3 10.7438 13.6704 0.904733
180 3 10.736 10.5766 3.0893
276 3 10.7033 10.5688 7.33199
209 3 6.62435 11.295 5.25007
232 3 9.3899 11.3527 5.19825
195 3 8.06093 13.5686 5.14269
260 3 9.31191 12.765 7.33115
236 3 10.6845 13.6227 5.11591
218 3 5.45455 13.6267 5.19464
253 3 7.95388 10.557 7.38038
285 3 6.68959 12.8992 7.41505
305 3 6.56705 11.405 9.51325
328 3 9.2412 11.3036 9.43222
292 3 8.15336 13.6247 9.49775
332 3 10.6707 13.6132 9.36356
43 1 7.70904 12.6772 11.9178
85 2 10.7424 13.5477 11.6547
89 2 8.11865 13.5143 11.6464
30 1 6.61794 10.3392 12.165
54 1 5.74599 11.3984 12.0783
82 2 6.60738 11.2521 11.8955
10 1 9.22108 13.433 11.8903
119 3 9.31612 15.9667 0.910887
126 3 6.70724 16.0246 0.815874
154 3 6.72595 17.5286 2.99835
171 3 8.04787 15.1687 2.98847
175 3 9.37289 17.5472 3.00225
131 3 8.01483 18.2422 0.944395
103 3 10.6624 18.2893 0.912097
147 3 10.7504 15.2304 3.01205
243 3 10.6253 15.2507 7.35025
227 3 8.02598 18.3127 5.17456
215 3 9.38166 15.9411 5.20741
222 3 6.75269 15.9268 5.22379
199 3 10.6902 18.1947 5.31025
266 3 8.01022 15.1191 7.22518
271 3 9.27447 17.5282 7.38345
250 3 6.65184 17.5109 7.41445
311 3 9.38156 15.971 9.47299
318 3 6.71277 15.9358 9.46011
323 3 7.94961 18.3013 9.47818
295 3 10.7522 18.3094 9.40298
52 1 8.00068 18.5218 12.7099
91 2 8.53987 17.5292 12.5542
53 1 6.79073 14.9443 11.8716
27 1 7.24737 16.4998 12.0946
96 2 6.56532 15.8813 11.8386
51 1 9.18212 17.5636 11.6535
46 1 10.5788 18.2881 13.1197
107 3 12.0543 2.00655 1.00212
127 3 14.8059 2.02982 1.07339
151 3 13.4136 1.14098 3.04635
155 3 14.6326 3.53363 3.07166
183 3 12.0259 3.52012 3.12602
111 3 13.4285 4.31369 1.07431
129 3 16.1188 4.24544 0.994838
169 3 16.004 1.14698 3.12599
203 3 12.0274 1.93293 5.16709
223 3 14.7722 2.06818 5.3217
207 3 13.421 4.29502 5.2268
225 3 16.1212 4.36833 5.21764
267 3 16.1353 1.2395 7.44147
279 3 11.9976 3.46636 7.43881
251 3 14.7004 3.57533 7.39854
247 3 13.4239 1.23855 7.35662
299 3 12.0223 1.93071 9.41913
319 3 14.7277 2.1082 9.48562
303 3 13.3713 4.20966 9.51347
321 3 15.9894 4.29871 9.63379
28 1 14.3337 1.93096 12.8097
57 1 11.8428 3.53036 12.7625
42 1 11.3222 0.284857 11.8793
7 1 15.6162 0.879637 12.2137
80 2 15.1375 2.42107 12.7759
24 1 11.9316 1.54929 13.5843
76 2 11.2953 4.13389 12.3524
68 2 12.6296 2.13159 14.0448
29 1 15.0395 2.88491 11.9421
67 2 15.8846 0.0131881 11.9909
38 1 12.5651 2.05908 14.9059
115 3 14.7358 6.60024 0.972544
144 3 12.0508 6.72043 0.986789
168 3 12.0176 8.23534 3.03039
187 3 13.3709 5.87271 3.06022
192 3 14.716 8.17346 3.09359
124 3 13.4297 9.00912 0.944696
157 3 16.0659 5.85035 3.03946
211 3 14.6846 6.66753 5.18996
240 3 11.9604 6.64474 5.24431
220 3 13.3669 8.98445 5.2277
287 3 14.6782 8.18733 7.35394
194 3 16.0557 8.95935 5.26074
255 3 16.0712 5.89345 7.36652
283 3 13.3219 5.82962 7.42992
289 3 16.0463 9.04508 9.39616
264 3 12.0075 8.13043 7.50547
336 3 12.0185 6.6409 9.51265
307 3 14.7349 6.60708 9.46866
316 3 13.4378 9.0304 9.38028
18 1 10.9923 7.97395 12.0177
88 2 11.869 6.70576 11.726
44 1 11.684 5.71996 12.0011
14 1 15.0662 7.73649 12.2441
4 1 15.425 6.34246 12.2475
48 1 12.852 6.83466 11.9595
84 2 14.7297 6.8358 11.9529
108 3 12.1189 11.2519 0.883345
128 3 14.7718 11.3048 0.969862
152 3 13.4433 10.5615 3.01143
156 3 14.7963 12.8725 3.06162
184 3 12.121 12.9168 3.03318
112 3 13.3497 13.6061 0.923099
170 3 16.1247 10.5171 3.06039
130 3 16.027 13.6815 0.899548
204 3 12.065 11.2578 5.20872
224 3 14.8143 11.3183 5.17849
208 3 13.4317 13.6526 5.21715
252 3 14.7784 12.9129 7.24269
280 3 12.0486 12.8879 7.3242
248 3 13.3812 10.4565 7.26996
268 3 16.0383 10.5321 7.26856
226 3 16.1348 13.6813 5.26284
300 3 11.9961 11.3802 9.40843
320 3 14.7658 11.4526 9.28289
304 3 13.5032 13.6395 9.39873
322 3 16.134 13.745 9.39414
61 1 13.8893 12.8904 12.0237
93 2 13.9864 13.3309 12.8923
75 2 14.3299 10.1901 12.2274
79 2 16.0312 11.6737 14.2838
41 1 14.7831 13.0479 13.4798
19 1 15.0453 10.9262 12.7461
35 1 11.2137 10.1143 11.6992
22 1 12.8636 10.7535 11.8702
9 1 11.3781 12.7139 11.523
69 2 11.7182 11.0722 11.7463
23 1 14.8915 10.0167 11.4572
63 1 15.7434 11.3205 15.2476
116 3 14.8341 16.0152 0.94376
143 3 12.0419 16.1247 0.895572
167 3 12.0815 17.5413 3.06733
188 3 13.4436 15.2318 3.06832
191 3 14.8238 17.503 2.99188
123 3 13.4127 18.2683 0.91773
158 3 16.032 15.157 3.0314
97 3 16.0812 18.3818 0.914637
193 3 16.045 18.3007 5.23703
212 3 14.7408 15.9647 5.18518
239 3 12.0027 15.9334 5.22599
219 3 13.5237 18.2693 5.15256
256 3 16.123 15.2367 7.32286
284 3 13.4235 15.2101 7.35781
288 3 14.7296 17.4995 7.45732
263 3 12.0754 17.5744 7.39214
308 3 14.7337 15.9408 9.46946
335 3 12.055 16.0083 9.45069
315 3 13.4114 18.3939 9.49052
290 3 16.1338 18.3203 9.56383
86 2 11.3802 18.6336 12.7402
3 1 15.2352 17.1272 12.1438
49 1 11.1321 14.3529 11.7966
15 1 11.7461 16.6969 12.3385
95 2 11.9458 15.8657 12.0313
25 1 12.8832 15.5302 12.255
71 2 14.7121 16.2769 11.8361
59 1 15.1644 15.4572 12.1859
