ITEM: TIMESTEP
18404000
ITEM: NUMBER OF ATOMS
336
ITEM: BOX BOUNDS pp pp pp
0.0000000000000000e+00 1.6167135238600000e+01
0.0000000000000000e+00 1.8668199539200000e+01
0.0000000000000000e+00 2.5747400283800001e+01
ITEM: ATOMS id type x y z
117 3 1.24304 1.96744 0.941898
141 3 4.0024 1.89373 0.989197
145 3 2.63083 1.28133 3.03244
165 3 4.04389 3.55156 3.07025
173 3 1.22664 3.52689 3.05897
101 3 2.66105 4.26563 1.03727
186 3 5.33875 1.15227 3.08081
121 3 5.32394 4.25048 0.963011
213 3 1.26238 2.02083 5.15028
237 3 3.95225 2.00956 5.27226
197 3 2.59485 4.23005 5.08437
217 3 5.22941 4.47691 5.2243
241 3 2.50718 1.25628 7.32405
282 3 5.32752 1.11652 7.38283
261 3 3.82816 3.6055 7.35748
269 3 1.21091 3.58217 7.42046
309 3 1.28139 2.03633 9.48641
333 3 4.03224 2.05775 9.36609
293 3 2.53812 4.3548 9.41164
313 3 5.22817 4.36983 9.40677
2 1 2.96545 0.663564 12.3918
11 1 3.94356 3.0289 12.7206
58 1 5.10156 1.80265 12.5881
77 2 4.0527 2.06113 12.5868
17 1 0.251044 4.48338 12.5467
26 1 0.698784 0.140504 11.904
105 3 3.89622 6.59391 0.934369
133 3 1.27884 6.66288 0.862032
161 3 1.27998 8.18554 3.05199
177 3 2.57262 5.90634 2.98053
181 3 3.98182 8.15792 3.0298
137 3 2.64665 8.98442 0.99014
109 3 5.29969 8.97185 0.865342
149 3 5.27176 5.90897 3.06208
201 3 3.98613 6.78642 5.17577
229 3 1.30163 6.62058 5.19924
233 3 2.58416 9.03259 5.14085
277 3 4.01745 8.33677 7.29457
273 3 2.5952 5.8805 7.26891
257 3 1.33627 8.17275 7.31853
245 3 5.33849 5.84817 7.30663
205 3 5.36107 9.02816 5.11722
301 3 5.26311 9.03718 9.53197
329 3 2.56921 8.95011 9.50618
325 3 1.38815 6.65956 9.39533
297 3 3.97119 6.6261 9.45455
40 1 5.32016 7.37894 10.4654
56 1 3.21758 7.51014 13.1583
55 1 3.27629 8.35945 11.8174
92 2 3.43155 8.43694 12.825
45 1 2.95251 5.56442 12.8705
13 1 3.5929 5.08435 11.5433
78 2 3.80302 5.36085 12.5654
32 1 1.29923 5.16686 11.6056
73 2 0.903912 5.22381 12.5432
118 3 1.31118 11.2905 0.93504
142 3 3.99613 11.4093 0.941147
146 3 2.57107 10.5086 2.95328
166 3 4.00799 12.8939 3.04242
174 3 1.26329 12.8363 2.99496
102 3 2.62373 13.6349 0.944595
122 3 5.31458 13.6099 0.947707
185 3 5.26147 10.5409 3.02216
214 3 1.24925 11.375 5.24814
238 3 3.93263 11.3328 5.16525
198 3 2.70428 13.6884 5.23706
242 3 2.68265 10.5587 7.22952
262 3 4.0167 12.8872 7.29871
270 3 1.34307 12.9171 7.34176
281 3 5.35453 10.6028 7.39199
334 3 3.83651 11.322 9.33906
310 3 1.28757 11.3243 9.44437
294 3 2.58622 13.7494 9.41845
314 3 5.3112 13.7706 9.46296
94 2 1.81425 10.5423 12.7181
16 1 3.57632 11.599 12.7163
5 1 2.40716 9.95617 12.9422
65 2 4.25775 12.3426 12.4243
31 1 0.681036 11.1158 13.6878
1 1 4.12284 12.6366 11.4153
62 1 1.65504 10.5393 11.746
34 1 2.20206 13.7743 13.2095
106 3 4.0375 16.0019 0.954724
134 3 1.25996 16.0513 0.989574
162 3 1.2088 17.6338 3.06017
178 3 2.57088 15.2057 2.95119
182 3 3.93258 17.5909 3.0889
138 3 2.63742 18.3138 0.902963
110 3 5.36693 18.3111 0.99232
150 3 5.38544 15.2283 3.00205
202 3 3.98002 15.9563 5.13799
230 3 1.37123 16.0124 5.21127
234 3 2.66853 18.3108 5.17607
206 3 5.34184 18.2349 5.21216
274 3 2.61697 15.2033 7.33838
258 3 1.2469 17.5849 7.42021
278 3 3.89481 17.5272 7.4963
298 3 3.9058 15.9144 9.48958
326 3 1.1979 16.0123 9.41278
330 3 2.5967 18.327 9.54817
246 3 5.34045 15.14 7.37347
36 1 3.13955 17.9053 12.119
66 2 2.65617 18.6212 11.8389
50 1 1.7725 14.0848 11.8148
64 1 4.92198 16.178 11.8862
70 2 3.95157 16.1151 11.8043
6 1 3.54027 15.2516 12.2019
90 2 1.85853 14.5379 12.659
114 3 6.64579 1.9341 0.922029
135 3 9.31353 2.02519 0.961634
159 3 7.9971 1.18684 3.00588
163 3 9.3137 3.4844 3.14938
189 3 6.59921 3.42144 3.09874
100 3 8.06991 4.35393 1.02953
139 3 10.6771 4.20353 1.01544
179 3 10.6739 1.2007 2.96819
235 3 10.6926 4.30628 5.20989
210 3 6.66219 1.92659 5.22378
231 3 9.40629 1.98622 5.25227
196 3 8.00146 4.26065 5.21536
254 3 8.00748 1.21421 7.33264
286 3 6.59786 3.46937 7.3408
259 3 9.36106 3.52434 7.42634
275 3 10.7213 1.22959 7.36865
306 3 6.72335 1.99432 9.45764
327 3 9.38162 2.01237 9.54238
291 3 8.00183 4.31862 9.47724
331 3 10.5647 4.39652 9.45996
39 1 8.69418 3.29396 11.8326
33 1 7.12839 1.22878 11.8173
47 1 7.8704 4.21236 12.924
20 1 10.276 3.90588 12.4121
37 1 7.33261 2.14124 13.0637
83 2 8.46641 3.50153 12.7811
81 2 6.91729 1.17693 12.8048
120 3 9.28261 6.60463 0.910439
125 3 6.65074 6.59566 0.957045
153 3 6.78617 8.19867 3.0208
172 3 7.96485 5.8046 3.07425
176 3 9.37052 8.21156 3.0867
132 3 7.97123 9.03797 0.884571
148 3 10.7502 5.84399 3.06093
104 3 10.7167 9.08685 1.02552
200 3 10.7253 8.98961 5.29566
216 3 9.30162 6.60531 5.18883
221 3 6.67344 6.71911 5.23126
228 3 7.99345 8.99502 5.30885
272 3 9.35398 8.15083 7.3314
249 3 6.66293 8.22913 7.34971
296 3 10.5494 9.00397 9.49679
265 3 8.03597 5.78002 7.41106
312 3 9.29628 6.69628 9.4455
317 3 6.60802 6.69483 9.39063
324 3 7.91896 9.03121 9.49177
244 3 10.6196 5.88824 7.38081
74 2 10.4875 8.90531 11.7297
8 1 9.12922 8.89989 11.7693
21 1 5.69602 6.10363 12.6138
12 1 6.69527 5.72217 11.6279
87 2 7.92805 8.91483 11.6131
72 2 6.66049 6.00175 12.5637
60 1 7.58458 8.1443 12.0512
18 1 10.7689 7.97469 11.7538
113 3 6.61303 11.3881 0.88518
136 3 9.38643 11.4275 0.978053
160 3 8.05248 10.507 3.07378
164 3 9.40658 12.9047 2.9963
190 3 6.67907 12.8691 2.99635
99 3 8.01964 13.6412 0.872468
180 3 10.7341 10.5737 3.103
140 3 10.7152 13.6935 0.9036
209 3 6.6404 11.3043 5.21816
232 3 9.35556 11.3655 5.19017
195 3 8.04717 13.5868 5.15942
260 3 9.29058 12.7711 7.33223
236 3 10.6759 13.6019 5.12005
218 3 5.42526 13.5886 5.21346
253 3 7.95584 10.5534 7.3888
285 3 6.69184 12.8915 7.45799
328 3 9.24864 11.2976 9.41232
305 3 6.5784 11.3774 9.5029
292 3 8.16732 13.616 9.50273
276 3 10.7154 10.5659 7.3683
332 3 10.6396 13.617 9.37486
43 1 7.40225 12.6186 12.2621
82 2 6.63402 11.2679 11.8748
30 1 6.72689 10.2597 12.1265
10 1 9.08634 13.3257 11.9855
89 2 8.06259 13.483 11.689
54 1 5.59936 11.4966 12.111
85 2 10.69 13.526 11.7113
119 3 9.32489 16.0049 0.912075
126 3 6.68758 16.0348 0.845867
154 3 6.69525 17.5075 3.02431
171 3 8.00918 15.1783 2.99238
175 3 9.38201 17.5586 3.02308
131 3 8.02314 18.1971 0.933928
103 3 10.6123 18.3002 0.910587
147 3 10.7393 15.2458 3.01172
215 3 9.37744 15.9642 5.22148
222 3 6.73869 15.9346 5.21821
227 3 8.03027 18.3297 5.18843
266 3 8.02354 15.1517 7.2123
199 3 10.6771 18.2387 5.31157
243 3 10.6523 15.2226 7.38502
250 3 6.63756 17.512 7.39989
271 3 9.30562 17.5361 7.40692
311 3 9.36387 15.952 9.45413
318 3 6.68713 15.9046 9.46102
323 3 7.96308 18.3372 9.48028
295 3 10.7464 18.3159 9.39889
302 3 5.39405 18.3782 9.43045
52 1 7.81108 18.3146 12.6934
53 1 6.91414 15.111 12.3265
46 1 10.4542 18.2571 13.3276
91 2 8.45597 17.5112 12.5125
96 2 6.58814 15.8915 11.7689
27 1 7.27624 16.5283 12.0515
51 1 9.155 17.6212 11.7178
107 3 12.0643 2.02715 1.0217
127 3 14.8129 2.02111 1.06733
151 3 13.4218 1.14628 3.07059
155 3 14.6463 3.53671 3.03508
183 3 12.0087 3.50539 3.11631
111 3 13.4239 4.32923 1.06306
129 3 16.0825 4.23621 1.006
169 3 15.9951 1.15275 3.11153
203 3 12.0286 1.9406 5.15268
223 3 14.7622 2.06216 5.32252
207 3 13.4086 4.32142 5.24158
247 3 13.4247 1.21198 7.35411
225 3 16.1275 4.34892 5.21207
267 3 16.139 1.23397 7.45415
321 3 15.9757 4.29284 9.62407
279 3 11.9951 3.44871 7.42787
251 3 14.723 3.55252 7.3864
319 3 14.7348 2.1016 9.47756
299 3 12.0177 1.91151 9.42725
303 3 13.3786 4.22938 9.512
68 2 12.6622 2.12674 14.0308
7 1 15.506 0.712519 12.3379
29 1 15.1052 2.65923 11.7416
24 1 12.1835 1.49448 13.6405
76 2 11.3188 4.16339 12.3431
80 2 15.1785 2.42627 12.7712
28 1 14.0875 2.35024 13.141
57 1 11.9361 3.58256 12.9663
42 1 11.027 0.597654 11.8787
67 2 15.7544 0.00165145 11.9597
38 1 12.8292 1.99847 14.9872
115 3 14.7121 6.62145 0.972261
144 3 12.0505 6.69218 0.93964
168 3 12.0193 8.25479 3.06456
187 3 13.3693 5.87356 3.04651
192 3 14.7199 8.1796 3.13046
124 3 13.4451 9.02004 0.921235
157 3 16.0568 5.87823 3.02035
98 3 16.148 8.90381 0.981072
211 3 14.7348 6.65994 5.17267
240 3 11.949 6.63441 5.2759
220 3 13.3415 8.96937 5.20902
194 3 16.0604 8.98787 5.25748
255 3 16.0813 5.86354 7.35895
283 3 13.3298 5.80146 7.39379
264 3 12.0019 8.14475 7.50806
287 3 14.7052 8.21403 7.38033
336 3 12.0397 6.64882 9.53978
307 3 14.7313 6.61061 9.45522
316 3 13.4204 9.07828 9.3969
289 3 16.0735 9.04887 9.40627
88 2 11.9307 6.73456 11.7666
84 2 14.7425 6.88615 11.8797
48 1 12.7761 6.92234 12.0702
14 1 14.9219 7.97606 12.0019
4 1 15.5486 6.3756 12.4268
44 1 11.7032 5.7774 11.7483
108 3 12.0999 11.236 0.911717
128 3 14.7336 11.3115 0.985992
152 3 13.4702 10.5773 3.00012
156 3 14.8142 12.8827 3.02974
184 3 12.1292 12.9165 3.07091
112 3 13.3553 13.6045 0.902771
170 3 16.1298 10.5163 3.07224
130 3 16.0383 13.6803 0.904607
204 3 12.0341 11.215 5.20944
224 3 14.8272 11.3248 5.14886
208 3 13.423 13.6639 5.20385
280 3 12.0523 12.8673 7.28843
252 3 14.7763 12.9121 7.24035
248 3 13.4022 10.4809 7.27577
268 3 16.0249 10.5081 7.24912
226 3 16.1133 13.7119 5.27019
322 3 16.0975 13.7366 9.35805
300 3 11.9784 11.362 9.41382
320 3 14.7611 11.4424 9.29183
304 3 13.4673 13.6367 9.40744
19 1 15.0344 10.7641 12.6854
61 1 14.1388 12.9599 12.0533
35 1 11.2079 9.88737 11.8223
9 1 11.3892 12.7687 11.7303
69 2 11.7524 11.0252 11.6794
93 2 13.9675 13.3329 12.8483
22 1 12.6835 10.7127 12.0886
79 2 16.0064 11.6534 14.2743
41 1 14.7352 12.925 13.4742
75 2 14.3299 10.1592 12.2395
23 1 14.5305 9.97522 11.2933
63 1 15.9713 11.27 15.4309
116 3 14.8525 16.0092 0.96647
143 3 12.0594 16.125 0.896513
167 3 12.0871 17.5178 3.06029
188 3 13.4274 15.2418 3.03722
191 3 14.8274 17.501 2.99534
123 3 13.397 18.2713 0.912844
97 3 16.0715 18.3607 0.910334
158 3 16.0812 15.1808 3.01128
256 3 16.148 15.2655 7.34119
212 3 14.6759 15.975 5.21031
239 3 12.0139 15.9259 5.21552
219 3 13.5038 18.2617 5.1638
284 3 13.4113 15.1943 7.34835
193 3 16.0638 18.2759 5.22148
288 3 14.7483 17.4845 7.46946
263 3 12.0906 17.5592 7.39435
335 3 12.0622 16.0114 9.45557
308 3 14.7439 15.9364 9.49741
315 3 13.4068 18.3552 9.5391
290 3 16.1346 18.3345 9.56372
59 1 15.1116 15.4937 12.5928
86 2 11.3277 18.5817 12.7463
95 2 11.9509 15.9016 12.0464
49 1 11.206 14.3355 12.0316
71 2 14.7483 16.285 11.8542
15 1 11.6813 16.7911 12.4642
3 1 15.392 17.1209 12.1042
25 1 12.8739 15.8223 12.0414
