ITEM: TIMESTEP
18404000
ITEM: NUMBER OF ATOMS
336
ITEM: BOX BOUNDS pp pp pp
0.0000000000000000e+00 1.6167135238600000e+01
0.0000000000000000e+00 1.8668199539200000e+01
0.0000000000000000e+00 2.5747400283800001e+01
ITEM: ATOMS id type x y z
117 3 1.2535 1.9567 0.946432
141 3 4.01179 1.88216 0.988195
145 3 2.61303 1.26546 3.00536
165 3 4.03937 3.53917 3.08891
173 3 1.26826 3.51069 3.06668
101 3 2.65847 4.2582 1.04965
186 3 5.3242 1.15317 3.08246
121 3 5.32493 4.24196 0.971777
213 3 1.28922 2.0125 5.15165
237 3 3.94647 2.0212 5.27554
197 3 2.6034 4.24637 5.06587
217 3 5.23518 4.47417 5.23805
241 3 2.49269 1.25286 7.30336
282 3 5.3422 1.11753 7.38181
261 3 3.85785 3.619 7.36743
269 3 1.22208 3.58996 7.42293
309 3 1.28429 2.03546 9.49228
333 3 4.04872 2.03832 9.36858
293 3 2.54887 4.34869 9.43247
313 3 5.25217 4.37275 9.42559
11 1 3.96956 3.05955 12.4228
58 1 5.11065 1.9089 12.6562
2 1 3.1684 0.628102 12.2178
77 2 4.04223 2.08134 12.5989
17 1 0.493434 4.32263 12.6214
26 1 0.63878 0.128099 12.0508
105 3 3.8987 6.59753 0.951257
133 3 1.29129 6.65883 0.843217
161 3 1.25161 8.18294 3.05836
177 3 2.57456 5.90552 2.95877
181 3 3.99022 8.17228 3.02459
137 3 2.62746 8.9997 0.990295
149 3 5.25774 5.92573 3.05171
109 3 5.29842 8.98479 0.890554
201 3 4.01151 6.77158 5.19261
229 3 1.29987 6.62788 5.1857
233 3 2.58321 9.02947 5.15114
277 3 4.04596 8.30888 7.28288
245 3 5.34769 5.8511 7.29525
273 3 2.57533 5.88795 7.27266
257 3 1.35269 8.18479 7.33539
205 3 5.34177 9.00347 5.14142
301 3 5.24554 9.04652 9.52046
325 3 1.35901 6.65955 9.3938
297 3 3.96769 6.62945 9.4759
329 3 2.56585 8.96825 9.52305
56 1 3.25018 7.56511 13.0709
32 1 0.95986 5.1778 11.5916
92 2 3.42848 8.42652 12.753
55 1 3.54023 8.38752 11.8949
13 1 3.60267 5.37065 11.463
78 2 3.86507 5.35959 12.5325
45 1 2.93255 5.24412 13.0297
73 2 0.887294 5.19659 12.5103
118 3 1.32924 11.2932 0.972315
142 3 3.997 11.4033 0.956279
146 3 2.5738 10.4906 2.94612
166 3 3.99986 12.9001 3.04932
174 3 1.23355 12.8354 2.99253
102 3 2.62362 13.6657 0.931852
122 3 5.31362 13.5968 0.941163
185 3 5.25464 10.5719 3.00988
214 3 1.23599 11.3772 5.22089
238 3 3.91603 11.3309 5.17341
198 3 2.69592 13.6979 5.25826
242 3 2.68183 10.5558 7.27399
262 3 4.03118 12.8726 7.31288
270 3 1.34244 12.9114 7.33837
314 3 5.308 13.7885 9.46626
281 3 5.35323 10.614 7.39059
334 3 3.86439 11.318 9.33983
310 3 1.29602 11.2954 9.43357
294 3 2.58932 13.7579 9.43424
65 2 4.27555 12.3602 12.3787
94 2 1.86602 10.6076 12.7644
1 1 4.11915 12.6993 11.4631
31 1 0.669625 11.1701 13.7471
5 1 2.3802 9.84242 13.1656
16 1 3.57788 11.8021 12.6718
62 1 2.00841 10.4802 11.8323
34 1 2.01808 13.7211 13.2369
106 3 4.04378 15.9827 0.960413
134 3 1.26602 16.0609 0.980221
162 3 1.21399 17.6165 3.06462
178 3 2.55755 15.2335 2.95805
182 3 3.93719 17.5927 3.08436
138 3 2.65875 18.2959 0.911899
110 3 5.3531 18.3101 0.981469
150 3 5.37479 15.2088 3.01169
202 3 3.98345 15.9585 5.14305
230 3 1.36275 16.0159 5.22934
234 3 2.65368 18.3522 5.18741
206 3 5.35064 18.2304 5.20777
274 3 2.61283 15.206 7.3336
246 3 5.35981 15.128 7.35298
278 3 3.9152 17.5267 7.46443
258 3 1.25563 17.5637 7.43101
298 3 3.90509 15.9107 9.47594
326 3 1.20224 16.0097 9.41845
330 3 2.60452 18.3159 9.55521
70 2 3.94007 16.0912 11.8357
50 1 1.9158 14.1566 11.6653
90 2 1.86984 14.5465 12.649
66 2 2.69736 18.5812 11.8234
64 1 4.91795 16.1361 11.8569
6 1 3.32668 15.3865 12.1931
36 1 3.22891 17.8487 12.2776
114 3 6.64165 1.93026 0.919596
135 3 9.32117 2.0262 0.966762
159 3 8.01578 1.17924 3.01753
163 3 9.30711 3.49494 3.1493
189 3 6.62857 3.42387 3.09534
100 3 8.04645 4.35876 1.01405
179 3 10.6756 1.21273 2.96399
139 3 10.6855 4.20232 0.990738
210 3 6.63943 1.93109 5.22034
231 3 9.40879 1.98899 5.23952
196 3 7.98962 4.26032 5.19365
254 3 7.98906 1.22437 7.30332
235 3 10.6773 4.29252 5.19842
286 3 6.5899 3.48018 7.38782
259 3 9.37098 3.53741 7.42528
306 3 6.70512 2.01384 9.46917
327 3 9.36338 1.99439 9.56151
291 3 8.00839 4.31112 9.4646
275 3 10.7231 1.23953 7.3782
331 3 10.5712 4.39897 9.46178
47 1 7.87395 4.29991 12.9216
33 1 7.1407 1.32913 11.805
83 2 8.48593 3.50085 12.8062
20 1 10.347 4.07388 12.6173
37 1 7.43918 2.18935 13.1479
81 2 6.93186 1.21034 12.8243
39 1 8.71572 3.30312 11.7346
120 3 9.27814 6.60581 0.897176
125 3 6.67202 6.60719 0.955466
153 3 6.75707 8.2066 3.01174
172 3 7.95454 5.82489 3.04484
176 3 9.38772 8.19741 3.0963
132 3 7.96207 9.05318 0.890294
148 3 10.7514 5.84491 3.05111
104 3 10.6948 9.07121 1.01413
200 3 10.7561 8.98763 5.28337
216 3 9.28197 6.60198 5.18224
221 3 6.67839 6.72896 5.26327
228 3 7.98993 9.00735 5.30932
249 3 6.68266 8.22109 7.34726
272 3 9.3342 8.15863 7.33032
296 3 10.5243 9.00017 9.51255
265 3 8.02247 5.7863 7.40835
317 3 6.60026 6.70476 9.40423
312 3 9.28568 6.70515 9.45006
324 3 7.90791 9.0184 9.48146
244 3 10.6357 5.88801 7.37152
40 1 5.51683 7.49116 10.6964
87 2 7.89345 8.9649 11.6355
74 2 10.477 8.89805 11.6856
8 1 8.94284 8.71397 11.615
21 1 5.72226 6.18399 12.5241
72 2 6.66251 5.96322 12.586
60 1 7.64211 7.93803 12.0387
12 1 6.75609 5.77821 11.4442
113 3 6.63681 11.3906 0.875105
136 3 9.3683 11.4172 0.962736
160 3 8.04313 10.4943 3.08067
164 3 9.39049 12.9085 3.01999
190 3 6.69454 12.8677 2.9882
99 3 7.99988 13.6471 0.8804
180 3 10.7151 10.5818 3.0792
140 3 10.7256 13.6813 0.895195
195 3 8.03795 13.5708 5.15139
209 3 6.64622 11.3123 5.21784
232 3 9.35869 11.342 5.19957
276 3 10.7087 10.5644 7.33903
260 3 9.29424 12.769 7.34251
236 3 10.6858 13.5859 5.11299
218 3 5.42998 13.6167 5.21998
253 3 7.96397 10.5618 7.40015
285 3 6.69548 12.9073 7.44091
328 3 9.23689 11.2868 9.44487
305 3 6.57007 11.3925 9.51087
292 3 8.15399 13.6059 9.51036
332 3 10.6498 13.6438 9.37342
54 1 5.67334 11.4513 12.1817
43 1 7.47088 12.9355 12.0689
10 1 9.17818 13.4231 11.9625
89 2 8.04965 13.5009 11.6652
82 2 6.61884 11.2902 11.8969
30 1 6.92641 10.4963 12.1503
85 2 10.6971 13.5703 11.6561
119 3 9.31061 15.9729 0.911607
126 3 6.69126 16.0327 0.831111
154 3 6.68731 17.4935 3.0238
171 3 8.02299 15.1968 2.98162
175 3 9.36958 17.5355 3.03228
131 3 8.03123 18.2261 0.958209
103 3 10.6128 18.3013 0.927493
147 3 10.7464 15.2303 3.01808
215 3 9.39436 15.9493 5.20792
222 3 6.72353 15.9405 5.22694
227 3 8.01153 18.3166 5.17563
199 3 10.6959 18.2559 5.33444
266 3 8.03199 15.1651 7.20014
250 3 6.65557 17.5139 7.43125
271 3 9.31993 17.5423 7.40115
318 3 6.70464 15.8915 9.44275
311 3 9.36239 15.986 9.44891
323 3 7.95604 18.3418 9.48458
243 3 10.6341 15.2195 7.38228
295 3 10.7476 18.3191 9.42224
302 3 5.40059 18.3661 9.43596
52 1 7.74261 18.4696 12.5674
51 1 9.23302 17.5039 11.7723
96 2 6.58122 15.878 11.8083
91 2 8.48995 17.5963 12.5351
53 1 6.95377 14.931 12.1717
27 1 7.3261 16.6144 12.1752
46 1 10.4217 18.3376 13.1847
107 3 12.0505 2.01515 1.01264
127 3 14.7764 2.04994 1.06298
151 3 13.4046 1.14881 3.05679
155 3 14.6259 3.50505 3.04311
183 3 12.0311 3.51705 3.11485
111 3 13.4432 4.33477 1.04398
129 3 16.0959 4.22791 0.992248
169 3 16.0017 1.17114 3.1134
225 3 16.1151 4.34355 5.21371
203 3 12.0143 1.92348 5.17337
223 3 14.779 2.06732 5.3119
207 3 13.4019 4.30165 5.26425
267 3 16.1402 1.2272 7.43071
279 3 12.0186 3.47474 7.43944
251 3 14.7307 3.57141 7.37551
247 3 13.4094 1.21218 7.35777
319 3 14.7589 2.11406 9.47278
299 3 11.995 1.91966 9.4155
303 3 13.3884 4.20623 9.50075
321 3 15.9877 4.29821 9.62762
29 1 15.1113 2.77176 11.7342
57 1 11.8469 3.69228 13.1544
68 2 12.7074 2.11232 14.0658
80 2 15.1914 2.44376 12.7668
24 1 12.1085 1.55395 13.6768
7 1 15.5717 0.900105 12.3039
28 1 14.0386 2.25379 13.1541
76 2 11.3331 4.15059 12.3281
42 1 10.909 0.398039 12.0351
38 1 12.6973 1.95937 15.0266
115 3 14.7316 6.59412 0.967725
144 3 12.0249 6.70372 0.952624
168 3 11.996 8.25303 3.06766
187 3 13.3803 5.86111 3.03357
192 3 14.7165 8.16762 3.12316
124 3 13.4415 9.04463 0.939876
157 3 16.0667 5.8572 3.04282
98 3 16.1406 8.90227 0.97225
194 3 16.0541 8.98315 5.25104
220 3 13.364 8.96677 5.21037
211 3 14.7196 6.65748 5.1657
240 3 11.944 6.65479 5.2629
283 3 13.3505 5.8044 7.41637
255 3 16.0855 5.8695 7.39042
264 3 11.9927 8.16367 7.51051
289 3 16.0603 9.05241 9.37188
287 3 14.7016 8.19497 7.37947
307 3 14.7471 6.61337 9.4595
336 3 12.0119 6.62777 9.52367
316 3 13.4295 9.06311 9.39223
14 1 14.8791 7.88968 11.9343
44 1 11.6331 5.63377 11.9473
48 1 12.7499 6.87166 12.0704
4 1 15.3586 6.23256 12.2056
84 2 14.7643 6.87291 11.844
88 2 11.8829 6.7002 11.7447
18 1 10.9377 7.91696 11.7904
108 3 12.0877 11.238 0.900252
128 3 14.7656 11.3098 0.988961
152 3 13.4427 10.5505 3.00941
156 3 14.8075 12.901 3.02123
184 3 12.1305 12.9236 3.02066
112 3 13.3523 13.6084 0.915208
170 3 16.1119 10.5161 3.05735
130 3 16.0593 13.6773 0.876754
268 3 16.0527 10.5178 7.26612
204 3 12.0487 11.2113 5.19292
224 3 14.8059 11.3177 5.16862
208 3 13.4177 13.6479 5.21445
280 3 12.0765 12.8707 7.30481
252 3 14.7772 12.9024 7.21965
248 3 13.4116 10.4723 7.29765
226 3 16.1327 13.6795 5.2678
300 3 11.9769 11.3549 9.38655
320 3 14.7398 11.4516 9.28891
304 3 13.4748 13.633 9.40621
322 3 16.1054 13.7108 9.35123
93 2 14.0175 13.3154 12.8052
75 2 14.2903 10.1734 12.2229
35 1 11.1358 9.9673 11.7235
69 2 11.7275 11.0678 11.7182
9 1 11.3635 12.8722 11.8248
61 1 14.0916 13.0286 11.7455
22 1 12.5719 10.755 12.1073
79 2 16.0144 11.6946 14.2849
41 1 14.592 12.933 13.4764
19 1 14.9131 11.0191 12.46
23 1 14.6724 9.89068 11.3494
63 1 15.89 11.4118 15.2419
116 3 14.8372 15.9968 0.962024
143 3 12.0544 16.1437 0.878067
167 3 12.0784 17.5005 3.08885
188 3 13.446 15.2263 3.04266
191 3 14.8245 17.5073 2.98865
123 3 13.3864 18.2613 0.896955
97 3 16.0748 18.3765 0.923415
158 3 16.0732 15.1713 3.0277
212 3 14.7077 15.9713 5.21778
239 3 12.0198 15.9178 5.1962
219 3 13.512 18.2625 5.1837
256 3 16.1279 15.261 7.33631
193 3 16.0417 18.2748 5.18393
284 3 13.4005 15.2041 7.36382
263 3 12.0966 17.5626 7.3763
288 3 14.7594 17.4825 7.47729
308 3 14.7569 15.935 9.47999
335 3 12.0507 16.0136 9.44368
315 3 13.4208 18.3839 9.50688
290 3 16.1281 18.3037 9.58262
49 1 11.2889 14.3785 12.0455
3 1 15.2911 17.1007 12.0223
95 2 11.9813 15.8847 12.0263
71 2 14.7307 16.3059 11.8857
25 1 12.7797 15.6227 12.1864
59 1 15.0487 15.5985 12.4903
15 1 11.71 16.8265 12.4579
86 2 11.3211 18.6424 12.7523
67 2 15.8255 18.6425 12.0215
