ITEM: TIMESTEP
18404000
ITEM: NUMBER OF ATOMS
336
ITEM: BOX BOUNDS pp pp pp
0.0000000000000000e+00 1.6167135238600000e+01
0.0000000000000000e+00 1.8668199539200000e+01
0.0000000000000000e+00 2.5747400283800001e+01
ITEM: ATOMS id type x y z
117 3 1.25358 1.98272 0.946632
141 3 4.01766 1.8936 0.998249
145 3 2.60855 1.2703 3.0572
165 3 4.04147 3.52194 3.07112
173 3 1.25596 3.52393 3.03943
101 3 2.66244 4.26531 1.05753
186 3 5.3298 1.17809 3.07616
121 3 5.31547 4.22931 0.967955
213 3 1.29104 2.01288 5.13171
237 3 3.9696 2.00651 5.26154
197 3 2.60391 4.25376 5.05987
217 3 5.23315 4.49271 5.23936
241 3 2.52726 1.26951 7.30924
261 3 3.86734 3.60678 7.34596
282 3 5.33207 1.11174 7.37071
269 3 1.22868 3.58425 7.4387
309 3 1.29955 2.06191 9.49219
333 3 4.05836 2.01932 9.37138
293 3 2.55592 4.37574 9.43194
313 3 5.22722 4.38472 9.42762
58 1 5.01395 1.79959 12.6021
2 1 3.26117 0.560244 12.2334
77 2 4.07498 2.0356 12.6018
11 1 3.97228 3.04303 12.4936
17 1 0.61904 4.28512 12.8391
26 1 0.706088 0.0873165 11.9992
105 3 3.90795 6.60413 0.954706
133 3 1.26458 6.62485 0.890456
161 3 1.27482 8.16185 3.02551
177 3 2.56703 5.89495 2.9418
181 3 4.00226 8.15101 3.02312
137 3 2.60685 8.98057 1.00584
149 3 5.26329 5.91444 3.03758
109 3 5.28578 8.97213 0.896114
201 3 3.99239 6.79714 5.17339
229 3 1.30257 6.6224 5.16116
233 3 2.5785 9.00724 5.14588
277 3 4.06136 8.32177 7.27657
273 3 2.59278 5.87841 7.27505
257 3 1.33532 8.19186 7.33347
245 3 5.34031 5.8351 7.29587
205 3 5.37393 9.01789 5.13364
301 3 5.24788 9.06465 9.5105
325 3 1.36587 6.65309 9.38789
297 3 3.97116 6.60512 9.47888
329 3 2.56791 8.96067 9.51577
40 1 5.21429 7.49738 10.5916
56 1 3.15041 7.65639 12.6623
92 2 3.50952 8.41752 12.7685
73 2 0.938261 5.16733 12.5535
55 1 3.77135 8.41691 11.712
45 1 3.01145 5.53351 13.2033
13 1 3.71515 5.02224 11.7064
78 2 3.77515 5.3438 12.5365
32 1 1.09573 5.13144 11.7174
118 3 1.31423 11.2678 0.937303
142 3 3.99127 11.4048 0.959648
146 3 2.58404 10.493 2.94311
166 3 3.98651 12.8942 3.05031
174 3 1.23389 12.8521 3.00928
102 3 2.61505 13.6683 0.952204
122 3 5.32088 13.5873 0.930579
185 3 5.26105 10.5988 3.00345
214 3 1.25761 11.3508 5.22358
238 3 3.91496 11.3438 5.17406
198 3 2.66795 13.6909 5.2274
242 3 2.65956 10.5616 7.28297
262 3 4.03468 12.869 7.2907
270 3 1.34532 12.9162 7.32086
334 3 3.85584 11.3351 9.33183
310 3 1.28993 11.2739 9.4468
294 3 2.59242 13.7499 9.43428
281 3 5.36266 10.5972 7.39281
314 3 5.29923 13.7999 9.44701
65 2 4.26725 12.399 12.3648
16 1 3.40783 11.8275 12.5094
5 1 2.36639 9.86329 13.0957
50 1 1.86174 13.8611 11.6906
34 1 2.0866 13.7961 13.3471
1 1 3.92145 12.7101 11.4542
62 1 1.95548 10.4353 11.8112
94 2 1.88783 10.6541 12.705
31 1 0.602238 11.1165 14.0063
106 3 4.04235 15.9992 0.962049
134 3 1.24192 16.0467 0.971325
162 3 1.20281 17.6171 3.04086
178 3 2.58222 15.2236 2.94763
182 3 3.94503 17.6111 3.09209
138 3 2.68599 18.301 0.942256
150 3 5.3853 15.2148 3.01332
110 3 5.36056 18.3097 0.977058
246 3 5.35644 15.1433 7.32815
202 3 3.97703 15.9883 5.14473
230 3 1.3356 16.0015 5.23754
234 3 2.64615 18.329 5.19932
206 3 5.33631 18.2223 5.19117
274 3 2.58497 15.2133 7.34174
258 3 1.24976 17.5782 7.43958
278 3 3.92673 17.5434 7.46331
326 3 1.1864 16.0327 9.41532
298 3 3.91226 15.9125 9.49506
330 3 2.61634 18.3198 9.57281
302 3 5.34112 18.3871 9.42827
36 1 3.1414 17.6268 12.3168
6 1 3.124 15.2718 12.0701
64 1 4.98301 15.9744 11.7441
66 2 2.67512 18.4862 11.9211
70 2 3.92811 16.0598 11.8153
90 2 1.87557 14.4729 12.6936
114 3 6.64222 1.92542 0.954813
135 3 9.30474 2.03273 0.966417
159 3 8.02106 1.1864 3.02438
163 3 9.31231 3.51518 3.14361
189 3 6.60508 3.41821 3.09807
100 3 8.0511 4.3318 1.00506
139 3 10.68 4.22423 1.01296
179 3 10.6686 1.21527 2.96808
210 3 6.66236 1.93476 5.24689
231 3 9.38424 1.9876 5.2258
196 3 7.98589 4.28059 5.2094
254 3 7.97104 1.20707 7.3002
235 3 10.6942 4.27211 5.19838
331 3 10.578 4.39481 9.44724
286 3 6.60741 3.48856 7.37097
259 3 9.38938 3.54531 7.42241
275 3 10.7209 1.23631 7.36006
291 3 7.98434 4.30868 9.46611
327 3 9.34992 1.9898 9.55376
306 3 6.72273 2.03194 9.47892
47 1 8.01039 4.27916 12.9206
39 1 8.68236 3.41861 11.8642
33 1 6.93763 1.34368 11.8869
83 2 8.53063 3.51497 12.8486
37 1 7.59642 2.0055 13.0048
20 1 10.426 4.25428 12.7014
81 2 6.96315 1.21121 12.837
120 3 9.29378 6.61474 0.91835
125 3 6.68936 6.60336 0.960489
153 3 6.7481 8.22858 2.99445
172 3 7.93919 5.81604 3.04364
176 3 9.3955 8.22974 3.08619
132 3 7.96393 9.01471 0.894546
148 3 10.7182 5.83662 3.02346
104 3 10.7084 9.08941 1.01262
200 3 10.7485 8.99666 5.27975
216 3 9.31317 6.60561 5.15292
221 3 6.68155 6.73494 5.27342
228 3 7.9978 9.01856 5.31494
272 3 9.33621 8.149 7.34103
244 3 10.6487 5.8979 7.33248
296 3 10.5499 8.98661 9.51184
265 3 8.03152 5.77695 7.43306
249 3 6.64663 8.22629 7.36274
312 3 9.28732 6.6838 9.44427
317 3 6.61304 6.70647 9.40896
324 3 7.88938 8.97902 9.48112
72 2 6.66473 5.93099 12.5358
74 2 10.4531 8.88134 11.7352
8 1 9.03183 8.79714 11.7455
21 1 5.68765 6.02108 12.5636
60 1 7.69988 8.08301 11.81
87 2 7.89477 8.90805 11.624
12 1 6.6759 5.67677 11.4817
113 3 6.63892 11.3721 0.887308
136 3 9.33701 11.3998 0.953291
160 3 8.03377 10.4892 3.06382
164 3 9.39297 12.8975 3.00708
190 3 6.6919 12.8506 2.99977
99 3 8.00064 13.6388 0.889598
140 3 10.7338 13.6607 0.910807
180 3 10.7076 10.5909 3.08567
209 3 6.6257 11.293 5.22141
232 3 9.36759 11.3415 5.21133
195 3 8.04401 13.5458 5.15014
276 3 10.686 10.5887 7.32419
260 3 9.28064 12.7836 7.32742
236 3 10.702 13.5957 5.11253
218 3 5.41307 13.6336 5.18976
253 3 7.95364 10.5567 7.38597
285 3 6.67441 12.9057 7.40642
328 3 9.26032 11.3082 9.4241
305 3 6.58375 11.407 9.50723
292 3 8.14542 13.6094 9.53124
332 3 10.6719 13.6455 9.36278
30 1 6.80057 10.2715 12.3221
10 1 9.00254 13.3494 11.9786
89 2 8.05848 13.4876 11.6441
43 1 7.36362 12.7897 12.0272
54 1 5.51599 11.5166 12.3125
82 2 6.61842 11.2476 11.9427
85 2 10.716 13.5143 11.688
119 3 9.30288 15.9857 0.902745
126 3 6.69587 16.0265 0.814939
154 3 6.69964 17.489 3.00933
171 3 8.01637 15.1979 2.98855
175 3 9.36752 17.5385 3.02009
131 3 8.02691 18.2301 0.928772
103 3 10.6296 18.2628 0.913946
147 3 10.7496 15.2459 3.00783
227 3 8.04405 18.3197 5.16996
215 3 9.37601 15.9357 5.20108
222 3 6.74703 15.9091 5.21577
266 3 8.05714 15.1471 7.21212
199 3 10.699 18.2285 5.32173
243 3 10.6407 15.2367 7.36564
271 3 9.29439 17.5234 7.40564
250 3 6.65761 17.5121 7.42515
311 3 9.35731 15.9696 9.46811
318 3 6.70132 15.9141 9.44452
323 3 7.94493 18.32 9.47499
295 3 10.7473 18.3148 9.41046
52 1 8.0813 18.5293 12.6351
91 2 8.52009 17.5882 12.5721
46 1 10.4164 18.3135 13.0775
53 1 6.95725 15.0738 12.1865
96 2 6.566 15.8951 11.8321
27 1 7.24633 16.5718 12.026
51 1 9.0962 17.3013 11.7083
107 3 12.0423 2.01206 0.996633
127 3 14.7942 2.04763 1.05575
151 3 13.4354 1.14783 3.05557
155 3 14.6326 3.5258 3.06807
183 3 12.0448 3.51427 3.13092
111 3 13.4294 4.33601 1.06796
129 3 16.1067 4.23337 0.993197
169 3 15.9932 1.15414 3.11068
225 3 16.1226 4.36136 5.21516
203 3 12.0098 1.93973 5.17858
223 3 14.7835 2.05153 5.29938
207 3 13.3975 4.282 5.27008
321 3 15.9896 4.30975 9.64165
267 3 16.1332 1.24423 7.42747
279 3 12.0072 3.4579 7.4361
251 3 14.7154 3.57157 7.35885
247 3 13.4241 1.20714 7.36778
319 3 14.7273 2.10684 9.49528
299 3 12.0248 1.91299 9.45531
303 3 13.3704 4.21071 9.50598
29 1 14.8391 2.92861 11.7856
68 2 12.6984 2.17849 14.0979
24 1 12.0653 1.50735 13.817
57 1 11.5855 3.62522 13.1126
80 2 15.0931 2.42186 12.7884
7 1 15.6698 0.900259 12.1767
28 1 14.1999 1.98156 13.1326
42 1 11.1109 0.276066 11.8646
76 2 11.2929 4.10241 12.3441
38 1 12.6075 1.9313 15.0829
115 3 14.7262 6.57777 0.965167
144 3 12.0131 6.71346 0.973283
168 3 12.0138 8.25123 3.03117
187 3 13.3785 5.86368 3.02794
192 3 14.7176 8.16438 3.09457
124 3 13.4357 9.03202 0.932789
98 3 16.1642 8.88686 0.991941
157 3 16.0751 5.83718 3.05391
211 3 14.7211 6.64881 5.17443
240 3 11.9412 6.6412 5.25662
220 3 13.3723 8.99012 5.21642
194 3 16.0586 8.96065 5.21849
283 3 13.3265 5.81393 7.4308
255 3 16.0701 5.89173 7.37385
264 3 11.9879 8.16837 7.49006
287 3 14.6947 8.20867 7.37314
307 3 14.735 6.62028 9.45862
336 3 12.0228 6.6419 9.5269
316 3 13.424 9.03709 9.38643
289 3 16.0637 9.04756 9.37437
14 1 14.8267 7.72053 12.1516
88 2 11.886 6.7349 11.7379
4 1 15.459 6.32308 12.2054
48 1 12.7761 6.69442 11.9961
84 2 14.7673 6.86935 11.8611
44 1 11.5045 5.83698 12.0285
18 1 11.0233 8.11881 11.7269
108 3 12.1079 11.2867 0.892361
128 3 14.7888 11.3143 0.996905
152 3 13.4171 10.5587 3.0331
156 3 14.8043 12.9047 3.03434
184 3 12.1245 12.9218 2.99953
112 3 13.3532 13.6083 0.928496
170 3 16.113 10.5294 3.07021
130 3 16.0443 13.6512 0.885023
204 3 12.0504 11.2366 5.2036
224 3 14.7612 11.3292 5.15549
208 3 13.4237 13.6279 5.20035
268 3 16.0485 10.4949 7.28778
252 3 14.7924 12.9138 7.23246
280 3 12.0692 12.8758 7.30045
248 3 13.4102 10.4771 7.30791
226 3 16.1299 13.6712 5.27171
322 3 16.1221 13.7249 9.38158
300 3 11.977 11.3671 9.41536
320 3 14.7511 11.4193 9.29026
304 3 13.47 13.6299 9.39002
93 2 14.0218 13.3147 12.8389
61 1 14.1212 12.9311 11.9499
41 1 14.6833 12.668 13.3996
35 1 11.0525 10.0936 11.8504
22 1 12.6072 10.8251 11.9774
79 2 15.9896 11.6739 14.2888
69 2 11.7743 11.043 11.7761
9 1 11.4858 12.8578 11.8438
19 1 14.8613 10.9014 12.6746
75 2 14.321 10.2251 12.2538
23 1 14.7305 9.81891 11.2999
63 1 15.8752 11.4427 15.1993
116 3 14.8308 16.004 0.94626
143 3 12.0655 16.1167 0.88326
167 3 12.0847 17.541 3.08983
188 3 13.4357 15.2379 3.07313
191 3 14.8151 17.4963 2.99183
123 3 13.4165 18.2213 0.876005
97 3 16.0686 18.3795 0.905866
158 3 16.0676 15.1624 3.04468
256 3 16.1347 15.2576 7.3266
212 3 14.7302 15.9782 5.22276
239 3 12.0023 15.9273 5.18935
219 3 13.5344 18.2713 5.18292
193 3 16.0406 18.2827 5.21154
284 3 13.4361 15.223 7.37312
288 3 14.7368 17.4889 7.48643
263 3 12.0769 17.5805 7.38969
308 3 14.7448 15.9557 9.47294
335 3 12.0538 16.0046 9.46066
315 3 13.4182 18.3823 9.49832
290 3 16.1306 18.3274 9.56798
59 1 15.0705 15.478 12.5316
95 2 11.9702 15.8337 12.0713
49 1 11.2871 14.4055 12.0918
71 2 14.7432 16.2813 11.8433
25 1 12.8413 15.4632 12.5285
15 1 11.5749 16.6944 12.4758
3 1 15.2814 17.0335 12.1147
67 2 15.8884 18.6186 11.9826
86 2 11.3105 18.6455 12.7902
