ITEM: TIMESTEP
18404000
ITEM: NUMBER OF ATOMS
336
ITEM: BOX BOUNDS pp pp pp
0.0000000000000000e+00 1.6167135238600000e+01
0.0000000000000000e+00 1.8668199539200000e+01
0.0000000000000000e+00 2.5747400283800001e+01
ITEM: ATOMS id type x y z
117 3 1.2513 1.95669 0.932973
141 3 3.99904 1.89668 1.00156
145 3 2.62453 1.26973 3.01328
165 3 4.03734 3.54757 3.07191
173 3 1.24435 3.51241 3.06072
101 3 2.66306 4.26074 1.04535
186 3 5.3347 1.15973 3.08709
121 3 5.32946 4.24593 0.97225
197 3 2.60478 4.21933 5.08016
213 3 1.27737 2.01877 5.14355
237 3 3.95413 2.01259 5.28138
217 3 5.23263 4.47917 5.2182
241 3 2.48991 1.24161 7.3251
282 3 5.34137 1.12386 7.38035
261 3 3.84773 3.61878 7.3622
269 3 1.21259 3.59148 7.42236
309 3 1.27904 2.03857 9.48356
333 3 4.03745 2.04319 9.37479
293 3 2.54679 4.35534 9.41433
313 3 5.22823 4.38141 9.41201
77 2 4.06137 2.06821 12.5851
11 1 3.97572 3.02311 12.6344
58 1 5.14871 1.94178 12.6802
2 1 3.07517 0.528189 12.1883
17 1 0.297251 4.40756 12.4624
26 1 0.510275 0.0635327 12.1234
105 3 3.90066 6.5932 0.955228
133 3 1.29461 6.64953 0.862148
161 3 1.26207 8.17065 3.06112
177 3 2.57136 5.90311 2.95878
181 3 3.99275 8.17053 3.01916
137 3 2.64898 8.99017 0.993581
109 3 5.30353 8.97582 0.876071
149 3 5.25656 5.91622 3.05023
245 3 5.33521 5.85341 7.30964
201 3 4.00944 6.77879 5.17426
229 3 1.30402 6.61783 5.20039
233 3 2.58154 9.03303 5.15366
277 3 4.04722 8.31686 7.28977
273 3 2.58012 5.88262 7.27381
257 3 1.34336 8.17503 7.33395
205 3 5.34461 9.00271 5.1213
329 3 2.55798 8.96204 9.52228
325 3 1.37777 6.6742 9.38343
297 3 3.9781 6.6177 9.46293
301 3 5.25823 9.05319 9.52645
92 2 3.43354 8.42894 12.761
55 1 3.44825 8.3324 11.8042
56 1 3.26971 7.60689 13.188
78 2 3.80702 5.37269 12.5132
13 1 3.51542 5.27709 11.5606
45 1 2.94114 5.41297 12.9933
73 2 0.896348 5.20604 12.5124
32 1 1.12813 5.18141 11.6515
118 3 1.32568 11.2921 0.954838
142 3 3.98883 11.4076 0.952536
146 3 2.58382 10.5016 2.95821
166 3 4.00834 12.9122 3.04928
174 3 1.24926 12.8376 2.98899
102 3 2.6323 13.6606 0.938727
122 3 5.31123 13.5903 0.943628
185 3 5.24322 10.5717 3.01891
214 3 1.248 11.381 5.243
238 3 3.93207 11.3412 5.17774
198 3 2.70239 13.7013 5.26383
262 3 4.01269 12.8752 7.30779
242 3 2.67937 10.5503 7.24447
270 3 1.34561 12.913 7.34734
281 3 5.35256 10.6157 7.38524
334 3 3.84564 11.3139 9.33856
310 3 1.28462 11.307 9.44152
294 3 2.58676 13.7609 9.41103
314 3 5.31262 13.7739 9.46304
5 1 2.39067 9.87023 13.1028
31 1 0.721247 11.1256 13.7559
62 1 1.81528 10.4635 11.7385
94 2 1.82237 10.6185 12.7641
34 1 2.03073 13.6228 13.208
1 1 4.05362 12.7302 11.4342
16 1 3.56054 11.7315 12.6377
65 2 4.24866 12.3552 12.393
106 3 4.04207 15.9983 0.944723
134 3 1.27461 16.0608 0.973187
162 3 1.21364 17.618 3.05708
178 3 2.56578 15.2211 2.95317
182 3 3.92389 17.5933 3.08163
138 3 2.66517 18.2918 0.911435
110 3 5.35449 18.3153 0.98955
150 3 5.3838 15.2235 2.99469
202 3 3.98392 15.951 5.14608
230 3 1.36641 16.0118 5.21852
234 3 2.66494 18.3432 5.18851
206 3 5.3402 18.2272 5.21777
274 3 2.61078 15.1936 7.32307
278 3 3.91951 17.5354 7.47282
258 3 1.24976 17.5707 7.41666
298 3 3.89842 15.9144 9.47711
326 3 1.19574 16.0077 9.41347
330 3 2.6144 18.3122 9.55383
246 3 5.33984 15.1383 7.35912
50 1 1.83021 14.1875 11.7367
36 1 3.26768 17.9207 12.2321
6 1 3.43071 15.321 12.2995
90 2 1.86309 14.518 12.6571
64 1 5.02064 16.0871 11.9059
70 2 3.93569 16.1259 11.8128
66 2 2.66137 18.5671 11.8097
114 3 6.63829 1.93037 0.923396
135 3 9.31583 2.0191 0.95974
159 3 8.00325 1.19255 3.02131
163 3 9.31375 3.50816 3.15233
189 3 6.61376 3.42338 3.09015
100 3 8.05156 4.35485 1.03329
139 3 10.6753 4.18407 0.985309
179 3 10.6884 1.20988 2.98129
210 3 6.64041 1.92434 5.2183
231 3 9.39988 1.99436 5.25848
196 3 7.99869 4.26124 5.19611
254 3 7.99893 1.20928 7.31795
235 3 10.6929 4.29166 5.20541
286 3 6.58827 3.47207 7.37975
259 3 9.36547 3.53818 7.4374
275 3 10.7143 1.22958 7.36943
291 3 8.00395 4.32144 9.47164
327 3 9.38301 1.99233 9.57026
306 3 6.70894 2.00482 9.46911
331 3 10.573 4.41185 9.46322
47 1 7.75362 4.23339 12.9674
33 1 7.18959 1.27967 11.6966
20 1 10.355 3.83616 12.6766
37 1 7.39517 2.14595 13.1415
81 2 6.91762 1.21177 12.8351
83 2 8.47014 3.54273 12.8064
39 1 8.64181 3.35652 11.7981
120 3 9.27304 6.5967 0.916489
125 3 6.66281 6.5959 0.95509
153 3 6.76965 8.20922 3.027
172 3 7.95539 5.82371 3.04896
176 3 9.36886 8.20665 3.10744
132 3 7.9591 9.0625 0.864874
148 3 10.7587 5.85006 3.06359
104 3 10.6962 9.08087 1.0269
216 3 9.29289 6.59982 5.18879
221 3 6.67793 6.72959 5.25776
228 3 7.98666 9.00687 5.31253
200 3 10.73 8.99477 5.28879
272 3 9.3343 8.15097 7.33129
249 3 6.68436 8.22708 7.3501
296 3 10.5314 8.9869 9.50941
265 3 8.02171 5.77408 7.39821
244 3 10.6186 5.89367 7.37683
317 3 6.59971 6.69932 9.40401
312 3 9.2916 6.70044 9.45161
324 3 7.91494 9.02025 9.48175
40 1 5.47362 7.54586 10.8159
8 1 9.0301 8.75551 11.7169
87 2 7.90138 8.94585 11.6384
60 1 7.66017 7.97095 12.038
72 2 6.66012 5.9723 12.549
21 1 5.61406 6.12 12.6603
74 2 10.4968 8.90253 11.6976
12 1 6.76186 5.71403 11.5482
113 3 6.63273 11.3802 0.872364
136 3 9.3777 11.4313 0.961912
160 3 8.04569 10.5001 3.07766
164 3 9.38892 12.9093 3.01584
190 3 6.68879 12.8624 2.9901
99 3 8.00986 13.6461 0.88021
140 3 10.722 13.683 0.902844
180 3 10.7187 10.5817 3.07361
276 3 10.7043 10.5819 7.34812
209 3 6.63263 11.2983 5.22559
232 3 9.35791 11.3519 5.19327
195 3 8.04615 13.5737 5.15765
260 3 9.28655 12.7626 7.33558
236 3 10.6699 13.592 5.11728
218 3 5.43336 13.6046 5.21327
253 3 7.9583 10.5591 7.3926
285 3 6.69461 12.8926 7.45221
305 3 6.57126 11.3796 9.50475
328 3 9.23517 11.2769 9.422
292 3 8.14878 13.6064 9.50537
332 3 10.6502 13.627 9.36884
30 1 6.91098 10.4001 12.1698
82 2 6.66554 11.2784 11.9241
89 2 8.07778 13.5046 11.6913
54 1 5.6365 11.4594 12.0834
43 1 7.46114 12.8139 12.2692
10 1 9.07927 13.426 12.027
85 2 10.6917 13.5541 11.6538
119 3 9.3158 15.9851 0.903309
126 3 6.68023 16.0338 0.823348
154 3 6.68103 17.503 3.02025
171 3 8.00968 15.1841 2.9944
175 3 9.38069 17.5671 3.02906
131 3 8.02058 18.2158 0.964637
103 3 10.614 18.3074 0.919174
147 3 10.7479 15.2354 3.03203
199 3 10.69 18.2523 5.32855
215 3 9.39895 15.9456 5.20206
222 3 6.72732 15.9415 5.23541
227 3 8.0141 18.3216 5.18724
266 3 8.03164 15.1536 7.21647
243 3 10.6432 15.2287 7.38786
250 3 6.63775 17.5102 7.41841
271 3 9.31567 17.5339 7.40795
311 3 9.37012 15.9933 9.4544
318 3 6.70308 15.8969 9.45075
323 3 7.96771 18.3427 9.47864
295 3 10.7532 18.3255 9.39917
302 3 5.3898 18.3629 9.41848
52 1 7.79155 18.4108 12.6679
91 2 8.49468 17.5581 12.5175
96 2 6.5856 15.8749 11.7913
53 1 6.96295 15.0259 12.3081
27 1 7.28135 16.4715 12.1733
51 1 9.19114 17.7434 11.7808
46 1 10.515 18.3728 13.2542
107 3 12.0719 2.01688 1.03868
127 3 14.801 2.03369 1.05168
151 3 13.4123 1.14615 3.07532
155 3 14.6298 3.51148 3.04218
183 3 12.0328 3.50454 3.1099
111 3 13.4296 4.33086 1.04125
169 3 15.9945 1.15924 3.11659
129 3 16.0899 4.21945 1.01684
225 3 16.111 4.3447 5.22147
203 3 12.0237 1.93529 5.17782
223 3 14.7688 2.07005 5.31002
207 3 13.4132 4.31327 5.24212
247 3 13.4095 1.20969 7.35626
267 3 16.1369 1.23028 7.44778
279 3 12.0054 3.47373 7.44849
251 3 14.715 3.57082 7.37681
319 3 14.7459 2.11596 9.46492
299 3 12.0062 1.9174 9.41607
303 3 13.3633 4.2122 9.5027
321 3 15.9939 4.30423 9.62065
80 2 15.1642 2.43368 12.7799
7 1 15.5493 0.883307 12.2929
29 1 15.179 2.7765 11.8242
68 2 12.6981 2.09935 14.0522
57 1 11.9444 3.63149 13.0063
28 1 14.1786 2.28665 13.1711
24 1 11.9958 1.55074 13.5924
76 2 11.3402 4.12292 12.355
42 1 11.0338 0.412634 11.8955
38 1 12.7754 1.96399 14.9901
115 3 14.7191 6.60054 0.973716
144 3 12.0388 6.69873 0.953134
168 3 12.0042 8.26687 3.05743
187 3 13.3901 5.85937 3.01826
192 3 14.7281 8.17819 3.12336
124 3 13.4389 9.03852 0.926117
98 3 16.1392 8.91153 0.974787
157 3 16.0715 5.86268 3.03006
194 3 16.0445 8.9757 5.24868
211 3 14.72 6.65466 5.16656
240 3 11.9466 6.63506 5.26901
220 3 13.3628 8.96484 5.21459
255 3 16.077 5.86385 7.38176
283 3 13.33 5.79891 7.41642
264 3 11.9971 8.15168 7.50306
287 3 14.7098 8.21293 7.38364
336 3 12.0352 6.64601 9.53015
307 3 14.7271 6.6036 9.44524
316 3 13.423 9.06889 9.38716
289 3 16.0575 9.0535 9.37882
84 2 14.772 6.86252 11.8619
14 1 14.8168 7.89774 12.0108
88 2 11.9149 6.7134 11.7978
4 1 15.5403 6.27925 12.2306
48 1 12.7513 6.85965 12.0865
44 1 11.624 5.58719 11.8608
18 1 10.7792 7.99104 11.8212
108 3 12.1075 11.2415 0.914787
128 3 14.7521 11.3222 0.985751
152 3 13.4558 10.5522 3.00751
156 3 14.8002 12.9121 3.03096
184 3 12.1265 12.9292 3.0415
112 3 13.3541 13.6141 0.904973
170 3 16.1213 10.5132 3.06504
130 3 16.0537 13.6826 0.898395
204 3 12.0479 11.2172 5.21318
224 3 14.8192 11.3135 5.16382
208 3 13.4089 13.6618 5.2095
252 3 14.7803 12.901 7.2328
280 3 12.0706 12.8685 7.30337
248 3 13.4026 10.4598 7.28334
268 3 16.0422 10.5146 7.26042
226 3 16.1217 13.6866 5.25568
320 3 14.7474 11.4385 9.30002
300 3 11.9637 11.3605 9.38942
304 3 13.4684 13.6385 9.4075
322 3 16.1071 13.7175 9.35244
93 2 13.9953 13.3257 12.7835
61 1 14.0703 12.9408 11.8321
79 2 16.0208 11.6486 14.303
9 1 11.2229 12.8111 11.8418
75 2 14.2942 10.2139 12.2366
69 2 11.7517 11.0629 11.6767
19 1 14.8937 10.8826 12.566
35 1 11.1841 9.82601 11.7881
22 1 12.696 10.6696 12.1367
41 1 14.6346 12.9947 13.6574
23 1 14.5604 9.91592 11.3046
63 1 15.8775 11.3708 15.3232
116 3 14.8459 16.0081 0.976894
143 3 12.048 16.1374 0.875907
167 3 12.085 17.5081 3.08182
188 3 13.4457 15.2503 3.04469
191 3 14.8269 17.5086 2.99362
123 3 13.3716 18.2608 0.907016
97 3 16.064 18.3724 0.917665
158 3 16.0647 15.1664 3.0295
212 3 14.7037 15.9681 5.22295
239 3 12.0061 15.9139 5.19746
219 3 13.5163 18.2771 5.17973
284 3 13.411 15.1883 7.35401
256 3 16.1345 15.2664 7.34066
193 3 16.0447 18.282 5.20121
263 3 12.1002 17.5588 7.37123
288 3 14.7639 17.4865 7.4649
315 3 13.4206 18.3626 9.51323
308 3 14.7475 15.9409 9.49076
335 3 12.0513 15.9985 9.45704
290 3 16.1329 18.3113 9.56458
3 1 15.3538 17.0708 12.1214
71 2 14.7314 16.302 11.8678
95 2 11.9421 15.8749 12.0084
49 1 11.249 14.3738 12.0332
15 1 11.7167 16.6942 12.5617
25 1 12.8331 15.7255 12.1177
59 1 15.082 15.5677 12.3797
86 2 11.3139 18.6107 12.7271
67 2 15.777 18.6566 11.9734
