ITEM: TIMESTEP
18404000
ITEM: NUMBER OF ATOMS
336
ITEM: BOX BOUNDS pp pp pp
0.0000000000000000e+00 1.6167135238600000e+01
0.0000000000000000e+00 1.8668199539200000e+01
0.0000000000000000e+00 2.5747400283800001e+01
ITEM: ATOMS id type x y z
117 3 1.25154 1.97431 0.933941
141 3 3.97133 1.91758 1.01321
145 3 2.62022 1.27941 3.05007
165 3 4.0245 3.54408 3.05925
173 3 1.23438 3.52224 3.04603
101 3 2.66315 4.26834 1.04655
186 3 5.34918 1.1698 3.08043
121 3 5.34695 4.26847 0.929915
213 3 1.2677 2.01838 5.15533
237 3 3.96195 1.98795 5.27436
197 3 2.61405 4.25994 5.05266
217 3 5.23021 4.46131 5.22432
241 3 2.51426 1.22685 7.31909
282 3 5.37135 1.1137 7.38335
261 3 3.83937 3.62116 7.36952
269 3 1.21656 3.58052 7.4263
309 3 1.28339 2.04373 9.48452
333 3 4.05047 2.03303 9.39375
293 3 2.56167 4.36593 9.42482
313 3 5.26513 4.3742 9.43323
11 1 4.09657 3.04825 12.5682
77 2 4.10348 2.05924 12.5954
2 1 2.94328 0.923776 12.2224
58 1 4.91858 1.70139 12.1621
17 1 0.240023 4.5437 12.676
105 3 3.88568 6.6208 0.950761
133 3 1.26085 6.67473 0.902916
161 3 1.25519 8.16825 3.0704
177 3 2.58643 5.87085 2.97703
181 3 4.01036 8.16428 3.0045
137 3 2.60908 8.96568 0.988051
109 3 5.31658 8.97406 0.935053
149 3 5.27758 5.93575 3.04218
98 3 0.0282183 8.90148 0.981444
201 3 3.98792 6.76985 5.20368
229 3 1.29623 6.63324 5.19456
233 3 2.58937 9.02991 5.14958
245 3 5.32891 5.86125 7.33676
273 3 2.5945 5.85984 7.26973
257 3 1.34439 8.15027 7.30928
277 3 4.02891 8.32629 7.31058
205 3 5.34764 8.99064 5.10259
297 3 3.97774 6.64377 9.47498
325 3 1.37348 6.65271 9.39874
329 3 2.58409 8.94745 9.50878
301 3 5.27537 9.06014 9.51228
40 1 5.04136 7.61132 10.6091
73 2 0.957078 5.21291 12.5727
55 1 3.62236 8.51889 11.9147
45 1 2.92049 5.41763 12.9629
92 2 3.40001 8.3808 12.7651
56 1 3.16849 7.58076 12.8112
78 2 3.79107 5.31628 12.4951
13 1 3.55624 5.27857 11.5002
32 1 1.28051 5.12866 11.619
118 3 1.333 11.2659 0.953919
142 3 3.96999 11.3992 0.944831
146 3 2.5861 10.5344 2.94454
166 3 3.99782 12.9012 3.04018
174 3 1.2825 12.8573 2.99755
102 3 2.63044 13.6386 0.940754
122 3 5.31257 13.6088 0.943996
185 3 5.26633 10.5484 3.00129
214 3 1.26618 11.385 5.24416
238 3 3.94076 11.3556 5.15106
198 3 2.69225 13.6641 5.22601
242 3 2.66766 10.5433 7.2949
262 3 4.04532 12.8894 7.29436
270 3 1.35092 12.9169 7.34611
334 3 3.8591 11.3159 9.34779
310 3 1.27728 11.2962 9.47035
294 3 2.56584 13.7499 9.43897
314 3 5.30327 13.7823 9.45721
281 3 5.36595 10.6093 7.40141
5 1 2.30706 9.78227 12.8773
1 1 3.7981 12.7221 11.6049
62 1 1.64964 10.356 11.7502
65 2 4.25509 12.3578 12.5093
50 1 1.46546 13.9579 11.8008
34 1 1.82566 13.7347 13.3812
94 2 1.82218 10.5826 12.7136
16 1 3.60548 11.7574 12.5269
31 1 0.73559 11.3534 13.7814
106 3 4.03869 15.988 0.948317
134 3 1.20478 16.0303 0.981964
162 3 1.24133 17.62 3.07267
178 3 2.59339 15.2039 2.96054
182 3 3.95831 17.6091 3.05307
138 3 2.64626 18.2995 0.930438
110 3 5.35274 18.3004 0.97541
202 3 3.99382 15.9895 5.13168
230 3 1.35295 16.0264 5.23401
234 3 2.63711 18.3188 5.18821
206 3 5.3739 18.2354 5.17789
274 3 2.58068 15.2246 7.32797
302 3 5.35558 18.408 9.41267
278 3 3.89906 17.5386 7.49415
258 3 1.26966 17.5801 7.4361
326 3 1.18087 16.0138 9.39296
298 3 3.93459 15.9208 9.50845
330 3 2.59124 18.3228 9.54146
246 3 5.34248 15.1798 7.37548
6 1 3.41796 15.2493 11.9533
66 2 2.59151 18.5663 11.9276
36 1 3.23551 17.8108 12.3219
64 1 5.02483 16.0316 12.0507
70 2 3.95118 16.0809 11.8462
90 2 1.86965 14.4638 12.6277
26 1 0.689161 18.6596 11.8685
114 3 6.63643 1.93105 0.929563
135 3 9.32962 2.03055 0.954299
159 3 8.00709 1.17663 3.02547
163 3 9.3252 3.49528 3.14338
189 3 6.58737 3.44072 3.09908
100 3 8.07567 4.36348 0.994174
179 3 10.6847 1.19681 2.95176
139 3 10.6701 4.19238 1.03392
196 3 8.01887 4.27021 5.23731
210 3 6.64708 1.95115 5.22917
231 3 9.39353 1.98047 5.25379
254 3 7.99852 1.2218 7.30132
235 3 10.6966 4.27646 5.23192
275 3 10.7194 1.25522 7.37796
286 3 6.62836 3.47006 7.3725
259 3 9.37166 3.52716 7.44143
327 3 9.36473 2.0238 9.53388
306 3 6.73165 2.01752 9.46662
291 3 7.97395 4.34225 9.49422
331 3 10.5622 4.41628 9.46754
47 1 7.9247 4.37375 12.7016
39 1 8.51817 3.11665 11.7678
81 2 6.91289 1.18557 12.6932
20 1 10.3044 4.14965 12.6647
33 1 7.18564 1.09069 11.7728
37 1 7.29269 1.97196 13.0286
83 2 8.52947 3.51205 12.7953
120 3 9.266 6.59339 0.910299
125 3 6.65979 6.60345 0.964596
153 3 6.74919 8.23029 3.01989
172 3 7.94324 5.83301 3.07537
176 3 9.39757 8.24215 3.06982
132 3 8.00158 9.01528 0.889383
148 3 10.6975 5.84875 3.04649
104 3 10.6992 9.06945 1.02397
200 3 10.7339 8.99654 5.27053
216 3 9.29744 6.61835 5.19425
221 3 6.67544 6.713 5.27941
228 3 8.02613 8.99141 5.32183
272 3 9.36873 8.13611 7.33816
244 3 10.6414 5.88023 7.35234
296 3 10.5427 8.99364 9.49317
265 3 8.03205 5.76537 7.41074
249 3 6.66071 8.21054 7.36811
312 3 9.28551 6.67608 9.41443
317 3 6.59644 6.68527 9.37636
324 3 7.89044 8.98947 9.49644
74 2 10.452 8.86747 11.7097
12 1 6.63321 5.60274 11.7112
21 1 5.68343 6.0776 12.6136
60 1 7.58515 8.12801 12.1615
87 2 7.95331 8.93515 11.6101
72 2 6.65257 6.00843 12.5826
8 1 9.01843 8.84276 11.732
113 3 6.63611 11.3794 0.914283
136 3 9.35974 11.3932 0.989943
160 3 8.04657 10.4985 3.06854
164 3 9.38209 12.8603 3.00844
190 3 6.67243 12.8779 2.9953
99 3 7.99165 13.6686 0.88686
140 3 10.7219 13.6621 0.899383
180 3 10.7355 10.5735 3.11406
218 3 5.45087 13.6111 5.19526
209 3 6.6394 11.2998 5.24877
232 3 9.38215 11.3447 5.18949
195 3 8.04856 13.5873 5.15297
236 3 10.6947 13.6196 5.12105
260 3 9.30565 12.7772 7.34565
276 3 10.7326 10.5421 7.31601
253 3 7.94015 10.5662 7.37628
285 3 6.6852 12.895 7.42138
328 3 9.22787 11.2994 9.43126
305 3 6.58301 11.3939 9.50944
292 3 8.15157 13.6147 9.50341
332 3 10.6622 13.6016 9.35611
54 1 5.60928 11.534 11.8563
43 1 7.65199 12.6195 11.9482
82 2 6.59901 11.2828 11.8493
30 1 6.78573 10.376 12.1284
89 2 8.11505 13.4549 11.7161
10 1 9.25764 13.2474 11.7012
85 2 10.7507 13.5543 11.6867
119 3 9.3265 15.9766 0.880688
126 3 6.69747 16.0196 0.846762
154 3 6.698 17.5341 2.9911
171 3 8.02327 15.183 2.97729
175 3 9.35737 17.5508 3
131 3 8.0216 18.2473 0.935306
103 3 10.6581 18.2954 0.902638
147 3 10.7345 15.2102 3.0037
150 3 5.3996 15.2235 3.00019
243 3 10.6563 15.2394 7.35336
215 3 9.388 15.9466 5.20486
222 3 6.77803 15.9226 5.22371
227 3 8.05867 18.3215 5.19337
199 3 10.6787 18.233 5.31162
266 3 8.02432 15.1384 7.22949
271 3 9.28177 17.5129 7.36621
250 3 6.64277 17.5129 7.42832
311 3 9.37187 15.9722 9.47351
318 3 6.71268 15.9151 9.47362
323 3 7.95044 18.3196 9.48778
295 3 10.7282 18.3168 9.41748
51 1 9.04629 17.682 11.836
52 1 7.97628 18.227 12.5907
53 1 6.82212 15.0409 11.9345
27 1 7.22041 16.4988 11.9919
96 2 6.53401 15.9128 11.8193
91 2 8.57141 17.5186 12.5047
46 1 10.4946 18.2257 13.1106
107 3 12.0681 2.02651 1.0107
127 3 14.7963 2.03094 1.06329
151 3 13.4232 1.15648 3.05031
155 3 14.6485 3.52581 3.06056
183 3 12.0153 3.51673 3.12992
111 3 13.4084 4.31001 1.08596
129 3 16.1048 4.23139 0.986225
169 3 15.9991 1.16043 3.13815
203 3 12.025 1.92323 5.18011
223 3 14.7772 2.07553 5.31119
207 3 13.4324 4.30547 5.22635
225 3 16.1104 4.37292 5.21288
251 3 14.7055 3.56195 7.41653
267 3 16.1312 1.2423 7.42975
279 3 12.0048 3.46615 7.43833
247 3 13.4073 1.22961 7.35988
319 3 14.7326 2.0936 9.4843
299 3 12.0332 1.9395 9.41613
303 3 13.3799 4.20702 9.50792
321 3 16.0114 4.29439 9.64035
28 1 14.0937 2.32822 12.9455
29 1 14.8344 2.78257 11.8537
7 1 15.6546 0.861334 12.1102
68 2 12.6793 2.10365 14.0305
80 2 15.1377 2.41137 12.727
24 1 11.9505 1.43812 13.8029
57 1 11.8734 3.61488 12.9721
42 1 11.1808 0.546273 11.9904
76 2 11.2754 4.12819 12.3474
38 1 12.7218 2.11941 15.0209
115 3 14.731 6.59394 0.975439
144 3 12.0621 6.72819 0.976902
168 3 11.9916 8.24551 3.04058
187 3 13.3566 5.87592 3.05729
192 3 14.7244 8.15042 3.08877
124 3 13.4468 9.02402 0.963149
157 3 16.0599 5.8555 3.04326
211 3 14.6929 6.66373 5.18026
240 3 11.9516 6.65395 5.24104
220 3 13.369 8.98659 5.21259
255 3 16.0792 5.88829 7.35383
287 3 14.6843 8.18178 7.33805
194 3 16.0548 8.95676 5.27228
283 3 13.3215 5.83323 7.41698
289 3 16.0228 9.02947 9.40758
264 3 12.0091 8.1395 7.51986
307 3 14.734 6.63974 9.46091
336 3 12.0119 6.64109 9.52013
316 3 13.434 9.03856 9.36889
18 1 10.9109 8.07015 11.8492
14 1 14.9829 7.77826 12.1984
4 1 15.4083 6.19467 12.3141
44 1 11.6585 5.7789 11.9306
48 1 12.7783 6.7497 12.1602
88 2 11.9219 6.7072 11.7338
84 2 14.7206 6.87619 11.9348
108 3 12.1338 11.2369 0.871066
128 3 14.7582 11.2832 0.989473
152 3 13.4552 10.5721 2.99073
156 3 14.7952 12.8644 3.03943
184 3 12.1285 12.914 3.04654
112 3 13.3537 13.6018 0.917084
170 3 16.1319 10.5301 3.05725
130 3 16.0083 13.6746 0.906568
204 3 12.0433 11.2638 5.21833
224 3 14.794 11.366 5.17044
208 3 13.431 13.6651 5.20152
252 3 14.776 12.8966 7.22905
280 3 12.0555 12.8728 7.29808
268 3 16.0274 10.5216 7.26335
248 3 13.4011 10.4454 7.27886
226 3 16.1406 13.6739 5.25226
322 3 16.1112 13.7344 9.39955
320 3 14.7579 11.4395 9.28809
300 3 12.0051 11.3741 9.41138
304 3 13.4855 13.6611 9.39399
61 1 14.1257 12.7924 11.9924
93 2 13.9704 13.3608 12.8623
9 1 11.3721 12.8317 11.5736
75 2 14.2995 10.2103 12.2304
35 1 11.1668 10.2583 11.836
69 2 11.6825 11.0614 11.7622
22 1 12.7021 10.7204 12.0101
79 2 15.9933 11.6988 14.2692
41 1 14.644 12.7624 13.3936
19 1 14.9643 10.792 12.7333
23 1 14.7412 9.99398 11.3187
63 1 15.7823 11.0636 15.0313
116 3 14.8182 16.0148 0.952213
143 3 12.0486 16.1212 0.89594
167 3 12.0609 17.5433 3.07842
188 3 13.4368 15.2295 3.07217
191 3 14.8205 17.5077 2.99923
123 3 13.3999 18.2419 0.891047
97 3 16.0756 18.3604 0.912207
158 3 16.0726 15.1682 3.01436
212 3 14.7195 15.9641 5.20769
239 3 12.0087 15.9295 5.23344
219 3 13.5162 18.2716 5.16236
284 3 13.4351 15.2093 7.35516
256 3 16.1139 15.2519 7.32902
193 3 16.0448 18.2888 5.24205
263 3 12.0994 17.5755 7.38749
288 3 14.7442 17.5271 7.47538
308 3 14.728 15.9192 9.46922
335 3 12.064 16.034 9.46274
315 3 13.4255 18.3876 9.49477
290 3 16.126 18.3385 9.54663
86 2 11.335 18.6176 12.7475
25 1 12.9454 15.7572 12.0212
49 1 11.1149 14.4205 11.9309
59 1 15.0955 15.4783 12.2541
3 1 15.212 17.0655 12.113
95 2 11.9563 15.8727 12.0051
15 1 11.6377 16.7112 12.402
71 2 14.7265 16.235 11.7823
67 2 15.8958 18.6399 11.9393
