ITEM: TIMESTEP
18404000
ITEM: NUMBER OF ATOMS
336
ITEM: BOX BOUNDS pp pp pp
0.0000000000000000e+00 1.6167135238600000e+01
0.0000000000000000e+00 1.8668199539200000e+01
0.0000000000000000e+00 2.5747400283800001e+01
ITEM: ATOMS id type x y z
117 3 1.26306 1.96181 0.945293
141 3 4.0213 1.89029 1.01142
145 3 2.61194 1.27025 3.0267
165 3 4.03809 3.51438 3.0836
173 3 1.26248 3.52147 3.0504
101 3 2.65913 4.25204 1.04076
186 3 5.3224 1.16139 3.07802
121 3 5.31729 4.2306 0.962951
213 3 1.28336 2.01004 5.14053
237 3 3.95784 2.02165 5.2684
197 3 2.60728 4.23913 5.05711
217 3 5.22884 4.49631 5.23118
241 3 2.51128 1.24815 7.29547
261 3 3.8794 3.5892 7.35241
282 3 5.35123 1.11634 7.377
269 3 1.22323 3.5905 7.42157
333 3 4.04164 2.01466 9.38301
309 3 1.28667 2.034 9.49979
293 3 2.55637 4.35991 9.44125
313 3 5.24119 4.38971 9.43343
2 1 3.16936 0.400971 12.1458
11 1 3.88719 3.00384 12.3195
58 1 4.95932 1.85087 12.5552
77 2 4.0509 2.09423 12.606
17 1 0.461645 4.37685 12.8829
26 1 0.695928 0.133221 12.0819
105 3 3.90327 6.5865 0.948979
133 3 1.27621 6.64511 0.849601
161 3 1.2749 8.18867 3.03415
177 3 2.57116 5.89726 2.94764
181 3 4.00728 8.16606 3.02261
137 3 2.61242 8.98094 0.989495
109 3 5.30291 8.97637 0.90017
149 3 5.2702 5.91046 3.04218
205 3 5.3592 9.01919 5.14101
201 3 4.00703 6.78231 5.18051
229 3 1.28369 6.61984 5.1776
233 3 2.58806 9.01716 5.1602
277 3 4.05764 8.31004 7.28772
245 3 5.35263 5.83515 7.30157
273 3 2.58974 5.87619 7.27635
257 3 1.35377 8.17616 7.34113
325 3 1.3615 6.65737 9.40109
297 3 3.96625 6.61667 9.48163
329 3 2.57179 8.96901 9.50345
301 3 5.23821 9.06012 9.52183
40 1 5.26331 7.52212 10.7027
56 1 3.19232 7.4914 12.9173
92 2 3.49106 8.45163 12.7746
78 2 3.82525 5.33583 12.5673
45 1 2.99212 5.48226 13.1713
13 1 3.57639 5.1617 11.6771
73 2 0.874498 5.17423 12.5495
32 1 1.07283 5.00748 11.4236
55 1 3.8097 8.42112 11.6761
118 3 1.32856 11.2745 0.963106
142 3 4.00318 11.4081 0.959479
146 3 2.57617 10.5089 2.94645
166 3 4.01412 12.8997 3.04866
174 3 1.24156 12.8459 3.00557
102 3 2.61851 13.6895 0.915625
122 3 5.32631 13.6017 0.926419
185 3 5.25695 10.5841 3.00928
214 3 1.26367 11.381 5.22748
238 3 3.93252 11.3493 5.15443
198 3 2.68063 13.7037 5.25008
242 3 2.67757 10.5688 7.2811
270 3 1.35319 12.9143 7.31497
262 3 4.03474 12.8712 7.30848
314 3 5.30422 13.7937 9.45196
310 3 1.28274 11.2959 9.42869
334 3 3.85342 11.3156 9.34097
294 3 2.59441 13.7548 9.45073
281 3 5.34272 10.5929 7.39086
34 1 2.04725 13.7162 13.3047
16 1 3.47751 12.0048 12.7239
31 1 0.71894 11.2446 13.9057
1 1 4.09833 12.7445 11.4235
94 2 1.88277 10.5838 12.7325
62 1 1.84017 10.4331 11.8112
65 2 4.25188 12.3742 12.3848
5 1 2.45379 9.69808 13.1271
50 1 1.98193 14.0006 11.6533
106 3 4.04666 15.993 0.960653
134 3 1.24636 16.0663 0.963849
162 3 1.21092 17.5999 3.04793
178 3 2.5712 15.2212 2.94186
182 3 3.95281 17.5923 3.07361
138 3 2.66626 18.2907 0.929117
110 3 5.35896 18.3065 0.967142
150 3 5.37659 15.2004 3.00156
202 3 4.00043 15.9809 5.14365
230 3 1.34655 16.022 5.23427
234 3 2.6541 18.3089 5.19453
206 3 5.34951 18.2237 5.2205
274 3 2.59747 15.2115 7.32482
246 3 5.36645 15.1207 7.34365
302 3 5.36324 18.3683 9.44833
258 3 1.26477 17.5676 7.42144
278 3 3.91091 17.539 7.45321
330 3 2.61892 18.323 9.56744
326 3 1.18524 16.0081 9.41332
298 3 3.91165 15.9048 9.47443
66 2 2.67204 18.5374 11.9274
36 1 3.09473 17.7308 12.3276
6 1 3.1672 15.4015 11.9846
64 1 4.84719 15.8405 11.7928
70 2 3.9171 16.0745 11.8232
90 2 1.86175 14.5149 12.675
114 3 6.64701 1.93037 0.954869
135 3 9.3076 2.0344 0.963108
159 3 8.03333 1.1771 3.00929
163 3 9.31203 3.50494 3.14449
189 3 6.61361 3.41971 3.09851
100 3 8.06087 4.34506 0.9984
139 3 10.6796 4.21667 1.0063
179 3 10.6672 1.2158 2.97152
210 3 6.64054 1.92865 5.24364
231 3 9.38846 1.98162 5.23611
196 3 7.97897 4.28442 5.19017
254 3 7.97706 1.20843 7.31356
235 3 10.6725 4.29468 5.20333
331 3 10.5818 4.40013 9.45435
275 3 10.7247 1.22963 7.37424
286 3 6.60634 3.47951 7.38078
259 3 9.37639 3.54914 7.42298
306 3 6.71783 2.01682 9.4703
327 3 9.37727 2.00431 9.55296
291 3 7.98815 4.2931 9.46938
47 1 7.87184 4.34473 12.9565
20 1 10.3003 4.2786 12.6066
33 1 7.05584 1.33772 11.8467
37 1 7.50288 1.95812 13.0329
39 1 8.69986 3.37189 11.8522
81 2 6.94469 1.19801 12.845
83 2 8.50311 3.51509 12.8253
120 3 9.28839 6.616 0.909578
125 3 6.69533 6.60763 0.939979
153 3 6.74341 8.21032 3.00944
172 3 7.93667 5.81593 3.05932
176 3 9.40539 8.20749 3.08494
132 3 7.93718 9.04663 0.888296
148 3 10.7131 5.84927 3.03996
104 3 10.6925 9.0809 1.00785
200 3 10.7601 8.98597 5.28419
216 3 9.27944 6.59892 5.16375
221 3 6.67031 6.73094 5.26425
228 3 7.99105 9.01348 5.30285
249 3 6.67422 8.22316 7.35539
272 3 9.33691 8.16452 7.34355
296 3 10.5407 9.00197 9.50852
265 3 8.03317 5.78243 7.4227
312 3 9.29779 6.68743 9.44745
317 3 6.6196 6.71403 9.40381
324 3 7.91074 8.99684 9.48263
244 3 10.6602 5.88561 7.35728
8 1 8.87875 8.7989 11.5741
60 1 7.64298 7.91567 11.8464
12 1 6.86334 6.01902 11.4386
74 2 10.4886 8.91199 11.7224
87 2 7.91845 8.90642 11.6631
21 1 5.64942 6.20675 12.61
72 2 6.70748 5.956 12.5431
113 3 6.63562 11.3874 0.889172
136 3 9.33795 11.411 0.958767
160 3 8.02566 10.5021 3.07727
164 3 9.39231 12.9138 3.00942
190 3 6.69876 12.8609 2.99098
99 3 7.9997 13.6297 0.894688
140 3 10.7319 13.6628 0.895665
180 3 10.7004 10.5925 3.09273
236 3 10.6938 13.6034 5.11172
209 3 6.63365 11.303 5.22695
232 3 9.36132 11.3546 5.2046
195 3 8.02938 13.5472 5.14283
276 3 10.7073 10.5935 7.33134
260 3 9.28319 12.7684 7.33353
218 3 5.41754 13.6027 5.21478
253 3 7.96736 10.5552 7.38318
285 3 6.67309 12.9155 7.42746
328 3 9.23077 11.2832 9.42779
305 3 6.58934 11.4092 9.50886
292 3 8.15764 13.6162 9.50504
332 3 10.6718 13.6347 9.35046
30 1 6.887 10.4463 12.1754
85 2 10.7435 13.5324 11.6523
43 1 7.4117 12.9118 12.086
82 2 6.6001 11.2536 11.9053
10 1 9.09996 13.4654 11.9598
54 1 5.55875 11.5446 12.4029
89 2 8.07467 13.4516 11.6724
119 3 9.30744 15.9657 0.921338
126 3 6.68565 16.0353 0.851216
154 3 6.67735 17.5077 3.00581
171 3 8.0251 15.1975 2.98049
175 3 9.36667 17.5424 3.01864
131 3 8.01481 18.2233 0.941482
103 3 10.621 18.2861 0.921781
147 3 10.7492 15.2414 3.02436
199 3 10.6881 18.2404 5.3086
227 3 8.02522 18.3253 5.18507
215 3 9.38491 15.9398 5.21429
222 3 6.73082 15.898 5.22338
266 3 8.04832 15.1554 7.20737
243 3 10.642 15.2269 7.36517
250 3 6.65438 17.5138 7.43129
271 3 9.30105 17.5429 7.39718
318 3 6.71636 15.8987 9.44027
311 3 9.36079 15.9772 9.46429
323 3 7.95056 18.3521 9.48839
295 3 10.7342 18.3199 9.40764
52 1 8.01758 18.5329 12.5845
91 2 8.51739 17.5819 12.5425
46 1 10.3781 18.3184 13.1583
53 1 6.92896 15.0366 12.0682
96 2 6.55987 15.8864 11.8122
27 1 7.2375 16.742 12.3035
51 1 9.21208 17.273 11.8036
107 3 12.0568 2.01134 1.00601
127 3 14.7882 2.0581 1.0544
151 3 13.4233 1.15984 3.06078
155 3 14.6278 3.51802 3.05139
183 3 12.0337 3.51242 3.12388
111 3 13.4352 4.33211 1.06213
129 3 16.092 4.23319 1.00809
169 3 15.9958 1.16961 3.10241
203 3 12.018 1.92422 5.18518
223 3 14.7962 2.05724 5.30966
207 3 13.3911 4.28074 5.26801
225 3 16.1062 4.35646 5.21163
321 3 15.9925 4.29263 9.6357
267 3 16.1455 1.23107 7.41294
251 3 14.7203 3.58467 7.37063
279 3 12.0196 3.47068 7.44813
247 3 13.4192 1.20882 7.35989
319 3 14.7408 2.12368 9.47896
299 3 12.0071 1.91103 9.44513
303 3 13.3695 4.19636 9.50657
29 1 15.0321 2.79402 11.7606
57 1 11.688 3.82718 13.2409
7 1 15.6361 0.910987 12.024
80 2 15.1287 2.46609 12.7881
28 1 14.1479 2.03722 13.1239
68 2 12.7022 2.12894 14.0809
24 1 11.9505 1.52092 13.7484
76 2 11.3101 4.10318 12.3607
42 1 11.088 0.399985 11.9493
38 1 12.6562 2.06316 15.0497
115 3 14.7283 6.58095 0.973041
144 3 12.0128 6.71335 0.958602
168 3 12.0085 8.2624 3.04084
187 3 13.3846 5.86314 3.02853
192 3 14.7191 8.17717 3.09594
124 3 13.4497 9.02128 0.945792
98 3 16.1441 8.90027 1.00559
157 3 16.0683 5.84085 3.03729
211 3 14.7457 6.6669 5.18597
240 3 11.9434 6.64259 5.25643
220 3 13.3725 8.98086 5.21407
194 3 16.047 8.96555 5.24272
255 3 16.0743 5.8786 7.37856
283 3 13.3303 5.80448 7.42619
289 3 16.0673 9.05923 9.36435
264 3 12.004 8.16519 7.51184
287 3 14.6958 8.1992 7.38147
307 3 14.7451 6.61832 9.45493
336 3 12.0212 6.63791 9.53278
316 3 13.4338 9.04549 9.39625
14 1 14.9122 7.77005 12.0422
4 1 15.4482 6.40353 12.1949
84 2 14.7873 6.89918 11.8823
44 1 11.6601 5.73587 11.8938
88 2 11.8631 6.70406 11.7759
48 1 12.7865 6.81617 12.0215
18 1 10.9137 7.90036 11.7403
108 3 12.0943 11.2624 0.903933
128 3 14.7551 11.3218 0.997717
152 3 13.4248 10.5355 3.02782
156 3 14.8018 12.9186 3.01992
184 3 12.1431 12.9366 3.0034
112 3 13.3568 13.5938 0.916518
170 3 16.1084 10.5129 3.06614
130 3 16.0601 13.675 0.89328
204 3 12.0446 11.2151 5.19685
224 3 14.7862 11.32 5.15971
208 3 13.4193 13.6515 5.20927
268 3 16.0364 10.5064 7.27119
252 3 14.7982 12.9002 7.23518
280 3 12.0598 12.8599 7.31311
248 3 13.4178 10.4827 7.31583
226 3 16.1413 13.6723 5.27391
320 3 14.7328 11.4215 9.28023
300 3 11.9616 11.3585 9.41003
304 3 13.4629 13.6272 9.40432
322 3 16.1144 13.7229 9.37181
61 1 14.2048 13.0866 11.7001
75 2 14.2962 10.1981 12.238
9 1 11.5445 12.8194 11.8276
79 2 15.9676 11.7108 14.2884
93 2 14.0101 13.2951 12.8127
19 1 14.9659 10.9287 12.5512
35 1 11.0276 10.1449 11.9534
69 2 11.7959 11.0788 11.7679
22 1 12.7154 10.7498 12.0573
41 1 14.7426 12.8837 13.4131
23 1 14.6972 9.75666 11.4825
63 1 15.8985 11.4415 15.1426
116 3 14.8383 15.9926 0.961995
143 3 12.0701 16.1155 0.878713
167 3 12.0738 17.5237 3.07498
188 3 13.4378 15.2294 3.05142
191 3 14.8361 17.5074 2.98878
123 3 13.4067 18.2431 0.89342
97 3 16.0752 18.3752 0.939072
158 3 16.0777 15.167 3.0279
212 3 14.7226 15.9826 5.21775
239 3 12.0078 15.9148 5.18459
219 3 13.5333 18.2646 5.17357
256 3 16.1237 15.2633 7.34221
193 3 16.0355 18.2918 5.1964
284 3 13.4115 15.2305 7.36322
288 3 14.74 17.4858 7.49037
263 3 12.0899 17.5704 7.39428
308 3 14.7559 15.9457 9.47911
335 3 12.0706 15.9986 9.45153
315 3 13.4287 18.3955 9.50402
290 3 16.1398 18.3146 9.58299
95 2 11.9934 15.8288 12.0848
71 2 14.6832 16.317 11.8808
25 1 12.8913 15.7035 12.383
59 1 15.1769 15.4709 12.5128
49 1 11.0928 14.3271 12.0858
15 1 11.721 16.669 12.4217
3 1 15.2865 16.975 12.0118
86 2 11.3245 18.6386 12.7882
67 2 15.8408 18.6456 11.9958
