ITEM: TIMESTEP
18404000
ITEM: NUMBER OF ATOMS
336
ITEM: BOX BOUNDS pp pp pp
0.0000000000000000e+00 1.6167135238600000e+01
0.0000000000000000e+00 1.8668199539200000e+01
0.0000000000000000e+00 2.5747400283800001e+01
ITEM: ATOMS id type x y z
117 3 1.25553 1.9645 0.924183
141 3 3.98885 1.89366 1.01008
145 3 2.62591 1.266 3.04458
165 3 4.02354 3.538 3.04778
173 3 1.25284 3.52136 3.02405
101 3 2.6548 4.2548 1.04701
186 3 5.36229 1.16422 3.06778
121 3 5.32753 4.24664 0.953571
197 3 2.59567 4.24598 5.03755
213 3 1.27969 2.01629 5.13446
237 3 3.96422 2.00311 5.26874
217 3 5.23828 4.48222 5.23928
241 3 2.50368 1.24047 7.31129
282 3 5.34876 1.11021 7.36413
261 3 3.86409 3.59595 7.35681
269 3 1.22564 3.55703 7.42227
309 3 1.27916 2.04143 9.46517
333 3 4.0664 2.02218 9.38174
293 3 2.56067 4.39046 9.43008
313 3 5.24575 4.38192 9.43945
11 1 3.99307 3.06646 12.6623
77 2 4.08815 2.07794 12.6676
2 1 3.16717 0.711896 12.1101
58 1 4.9071 1.70065 12.2643
17 1 0.374281 4.29211 12.6923
26 1 0.83285 0.0174034 11.9538
105 3 3.92869 6.60224 0.935549
133 3 1.27689 6.64167 0.879125
161 3 1.28532 8.17785 3.0447
177 3 2.59107 5.86881 2.95387
181 3 4.00094 8.16696 3.02003
137 3 2.59875 8.96477 0.997449
109 3 5.29359 8.98327 0.901818
149 3 5.25378 5.94594 3.05101
98 3 0.0104459 8.86906 0.970924
245 3 5.34319 5.83343 7.31541
205 3 5.35969 9.0314 5.10259
201 3 4.00212 6.76187 5.17302
229 3 1.30441 6.6541 5.16523
233 3 2.56941 9.02777 5.14644
277 3 4.02566 8.31145 7.28856
257 3 1.34107 8.18082 7.33198
273 3 2.60381 5.88042 7.29076
325 3 1.36585 6.64443 9.39576
297 3 3.95634 6.64237 9.46903
329 3 2.56622 8.98755 9.51172
301 3 5.28207 9.07025 9.5041
40 1 5.1061 7.30941 10.3884
55 1 3.61623 8.5359 11.6612
45 1 2.97225 5.33554 13.2092
56 1 3.06576 7.38585 12.6704
78 2 3.79741 5.29564 12.5112
13 1 3.5039 5.26745 11.5326
92 2 3.42242 8.4106 12.8151
73 2 0.928791 5.14313 12.5503
32 1 1.06595 5.15918 11.6002
118 3 1.31684 11.2821 0.954774
142 3 3.99528 11.4142 0.937691
146 3 2.56709 10.5192 2.95533
166 3 4.00062 12.905 3.02167
174 3 1.27269 12.8739 3.02141
102 3 2.63828 13.6421 0.954428
122 3 5.29939 13.6159 0.89968
185 3 5.24582 10.5687 2.99491
214 3 1.27029 11.3677 5.2368
238 3 3.91121 11.3445 5.15207
198 3 2.68127 13.6813 5.23972
242 3 2.66445 10.5687 7.28509
262 3 4.0369 12.8722 7.28742
270 3 1.35194 12.9354 7.33323
334 3 3.83995 11.3452 9.34171
310 3 1.27872 11.2824 9.45764
294 3 2.55982 13.735 9.41748
281 3 5.35686 10.6018 7.39265
314 3 5.29584 13.7905 9.44584
31 1 0.708648 11.3248 14.0518
5 1 2.44449 9.73006 12.826
1 1 4.01101 12.5463 11.5187
62 1 1.79257 10.3981 11.6056
65 2 4.32191 12.3405 12.4325
16 1 3.41567 11.76 12.4715
94 2 1.80043 10.663 12.6956
50 1 1.84979 13.9977 11.7969
34 1 2.13945 13.8735 13.3265
106 3 4.05234 15.9995 0.971642
134 3 1.20789 16.0549 0.986874
162 3 1.21066 17.6225 3.0485
178 3 2.58934 15.2044 2.95322
182 3 3.95215 17.6137 3.05791
138 3 2.66345 18.3076 0.954456
110 3 5.37869 18.3232 0.972079
150 3 5.38194 15.2095 3.01337
202 3 3.97938 15.9864 5.13899
230 3 1.33522 16.0259 5.25426
234 3 2.6519 18.3118 5.21059
206 3 5.36063 18.2304 5.17608
274 3 2.56972 15.1987 7.34743
246 3 5.34603 15.1511 7.35386
302 3 5.32928 18.4017 9.4367
258 3 1.23698 17.5716 7.45247
278 3 3.88924 17.5473 7.49503
298 3 3.93735 15.9058 9.49594
326 3 1.20636 16.0076 9.39629
330 3 2.58591 18.3146 9.55375
70 2 3.95124 16.0891 11.8113
36 1 3.215 17.8352 12.6338
64 1 4.86214 15.9923 11.9728
66 2 2.61636 18.5304 11.9318
6 1 3.22665 15.4385 12.0571
90 2 1.8977 14.4831 12.6797
114 3 6.64398 1.94086 0.934598
135 3 9.30462 2.04106 0.966667
159 3 8.00936 1.18251 3.01846
163 3 9.28981 3.49423 3.11652
189 3 6.59025 3.42453 3.08151
100 3 8.0718 4.3408 0.997867
139 3 10.669 4.21515 1.01456
179 3 10.6915 1.19687 2.95918
235 3 10.6802 4.28843 5.23705
210 3 6.64472 1.95137 5.23349
231 3 9.36679 1.9734 5.25132
196 3 7.98021 4.2796 5.22513
254 3 7.95979 1.21443 7.30478
331 3 10.5679 4.3903 9.47232
286 3 6.61812 3.48805 7.38224
259 3 9.34047 3.54286 7.43456
306 3 6.71358 2.04644 9.47258
327 3 9.3587 1.997 9.53096
291 3 7.96749 4.3244 9.50083
275 3 10.7319 1.22665 7.38552
47 1 8.0848 4.48065 12.8831
81 2 6.96689 1.17226 12.7728
20 1 10.3743 4.24657 12.7156
83 2 8.495 3.56564 12.7892
37 1 7.45268 2.00351 12.8786
39 1 8.56913 3.36714 11.9256
33 1 6.92737 1.13412 11.7949
120 3 9.29012 6.61001 0.918466
125 3 6.66049 6.59495 0.956007
153 3 6.74958 8.24168 3.01126
172 3 7.94182 5.8262 3.05217
176 3 9.39631 8.24957 3.08981
132 3 7.99646 9.00497 0.884785
148 3 10.7132 5.83748 3.03283
104 3 10.6867 9.05632 1.03426
216 3 9.29559 6.61013 5.17086
221 3 6.69342 6.7228 5.28256
228 3 8.0112 8.98594 5.31017
272 3 9.34877 8.14605 7.34765
244 3 10.6327 5.90245 7.32052
200 3 10.7413 8.9859 5.29131
296 3 10.5545 8.99714 9.49733
265 3 8.02623 5.7785 7.4247
249 3 6.66008 8.21089 7.37725
312 3 9.28287 6.69914 9.441
317 3 6.60189 6.70603 9.39564
324 3 7.87994 8.9904 9.49511
21 1 5.84767 6.15809 12.4442
8 1 8.97702 8.7677 11.7833
74 2 10.4536 8.82233 11.7787
12 1 6.653 5.65636 11.499
72 2 6.65364 5.93251 12.5638
87 2 7.9455 8.94273 11.629
60 1 7.58207 8.09016 12.0479
113 3 6.64072 11.3737 0.907831
136 3 9.37656 11.4064 0.970574
160 3 8.05326 10.5014 3.0643
164 3 9.39149 12.9023 2.99765
190 3 6.6815 12.864 2.99504
99 3 8.00721 13.6487 0.902312
140 3 10.7367 13.6516 0.906858
180 3 10.7246 10.5813 3.08779
209 3 6.61626 11.2959 5.22399
232 3 9.37539 11.3472 5.19852
195 3 8.04965 13.5722 5.14532
260 3 9.31105 12.7799 7.33491
276 3 10.6924 10.577 7.33309
236 3 10.6794 13.6101 5.11707
218 3 5.44095 13.6337 5.18783
253 3 7.9454 10.549 7.38308
285 3 6.69081 12.9098 7.40814
305 3 6.58003 11.3999 9.50223
328 3 9.23323 11.3048 9.43061
292 3 8.13981 13.6146 9.50997
332 3 10.6827 13.6258 9.36555
43 1 7.54707 12.7001 11.8842
85 2 10.7531 13.5752 11.6227
82 2 6.60177 11.2611 11.9444
30 1 6.72353 10.306 12.3175
10 1 9.1499 13.3982 11.9704
89 2 8.12196 13.5199 11.6893
54 1 5.67439 11.404 12.2905
119 3 9.31784 15.9642 0.922583
126 3 6.69957 16.0378 0.81852
154 3 6.72049 17.5281 3.00704
171 3 8.04731 15.166 3.00863
175 3 9.36879 17.5403 3.01199
131 3 8.0228 18.2277 0.933246
103 3 10.6603 18.2746 0.909127
147 3 10.7492 15.2273 3.01817
227 3 8.03406 18.3112 5.17872
215 3 9.39937 15.9448 5.22448
222 3 6.75841 15.9101 5.21218
199 3 10.6955 18.2191 5.30662
266 3 8.00621 15.1149 7.22478
243 3 10.6227 15.2424 7.36827
271 3 9.28352 17.5284 7.38912
250 3 6.64777 17.4991 7.39699
311 3 9.37572 15.9791 9.48277
318 3 6.71273 15.9196 9.44681
323 3 7.95774 18.3092 9.47547
295 3 10.747 18.3192 9.40282
52 1 7.87612 18.4207 12.6937
96 2 6.55259 15.9006 11.8122
46 1 10.4397 18.3133 12.9996
27 1 7.29207 16.3539 12.2279
53 1 6.90749 14.9357 11.9757
91 2 8.55019 17.5418 12.5878
51 1 9.18784 17.6429 11.6912
107 3 12.0344 2.00649 1.00864
127 3 14.7917 2.04149 1.05554
151 3 13.4188 1.14356 3.04514
155 3 14.6365 3.51499 3.08022
183 3 12.0353 3.51583 3.12104
111 3 13.4454 4.31128 1.07783
129 3 16.123 4.22012 0.992428
169 3 16.0109 1.15116 3.11396
203 3 12.0253 1.93896 5.18062
223 3 14.7846 2.05749 5.3106
207 3 13.4073 4.2751 5.2328
247 3 13.427 1.22696 7.35486
225 3 16.1089 4.35919 5.23694
267 3 16.1455 1.25249 7.43256
279 3 11.9925 3.47575 7.44164
251 3 14.6994 3.56837 7.40301
319 3 14.7285 2.10319 9.49447
299 3 12.0305 1.91647 9.43239
303 3 13.3817 4.20457 9.51484
321 3 15.9756 4.30392 9.63296
24 1 11.937 1.58828 13.779
68 2 12.6673 2.16676 14.0661
29 1 14.8484 2.90366 11.9102
42 1 11.3839 0.227823 11.7097
80 2 15.1323 2.39964 12.7947
7 1 15.4009 0.826041 12.2855
28 1 14.321 2.03058 12.9652
57 1 11.8615 3.54549 12.9555
76 2 11.2426 4.15693 12.3747
38 1 12.6626 2.02264 14.9076
115 3 14.7401 6.59224 0.958365
144 3 12.0285 6.73505 0.978864
168 3 12.0172 8.23728 3.02272
187 3 13.3839 5.87152 3.04502
192 3 14.7372 8.17352 3.09478
124 3 13.4342 9.02146 0.935449
157 3 16.0649 5.8487 3.04635
211 3 14.6967 6.6612 5.19287
240 3 11.9606 6.65841 5.23753
220 3 13.3852 9.01579 5.22928
194 3 16.0552 8.95707 5.24646
283 3 13.3141 5.82661 7.43791
255 3 16.0716 5.89485 7.37194
289 3 16.0555 9.04784 9.38024
264 3 12.0121 8.13188 7.49505
287 3 14.6766 8.19264 7.36557
307 3 14.739 6.62448 9.46295
336 3 12.0116 6.64604 9.51236
316 3 13.4281 9.03179 9.37547
18 1 11.1342 8.14936 11.9101
44 1 11.6788 5.76649 12.0366
84 2 14.7512 6.84775 11.9241
4 1 15.4847 6.39407 12.3118
14 1 15.1656 7.81481 12.1714
88 2 11.8908 6.70972 11.734
48 1 12.8304 6.86537 11.8884
108 3 12.1193 11.2664 0.86942
128 3 14.7784 11.296 0.993135
152 3 13.429 10.5603 3.0151
156 3 14.7961 12.875 3.06521
184 3 12.121 12.9231 3.01923
112 3 13.3656 13.6009 0.912374
170 3 16.116 10.5359 3.05961
130 3 16.044 13.6608 0.897392
204 3 12.0481 11.2462 5.19208
224 3 14.7897 11.3183 5.16732
208 3 13.4282 13.6451 5.21748
226 3 16.1282 13.6754 5.26714
252 3 14.7743 12.9179 7.2458
280 3 12.0597 12.8634 7.328
248 3 13.3721 10.4591 7.28203
268 3 16.046 10.5367 7.26846
300 3 11.9911 11.374 9.41726
320 3 14.756 11.4546 9.29349
304 3 13.4973 13.6165 9.40647
322 3 16.1385 13.7489 9.38273
61 1 13.9011 12.9134 11.9852
19 1 14.8983 10.9494 12.7605
75 2 14.3373 10.1718 12.2173
35 1 11.1528 10.0771 11.6908
93 2 13.9894 13.3088 12.8773
69 2 11.7709 11.063 11.7555
79 2 16.0381 11.6757 14.2525
22 1 12.8141 10.7864 11.9169
41 1 14.706 12.9021 13.4167
9 1 11.4241 12.7117 11.5892
23 1 14.9299 10.0078 11.3155
63 1 15.7402 11.4064 15.2901
116 3 14.8183 16.0184 0.963406
143 3 12.0609 16.1177 0.897235
167 3 12.0823 17.5319 3.06188
188 3 13.4409 15.2458 3.06324
191 3 14.825 17.5171 2.99411
123 3 13.4214 18.2614 0.906923
97 3 16.0683 18.406 0.925671
158 3 16.0388 15.176 3.03197
212 3 14.7502 15.9686 5.19358
239 3 11.9916 15.9271 5.2224
219 3 13.5127 18.2566 5.17348
256 3 16.1092 15.2391 7.315
193 3 16.0518 18.2976 5.22262
284 3 13.4289 15.1929 7.3633
288 3 14.7436 17.5025 7.45352
263 3 12.0678 17.5754 7.39533
308 3 14.7409 15.9332 9.46751
335 3 12.0425 16.0184 9.45697
315 3 13.4075 18.3784 9.49954
290 3 16.1264 18.3314 9.55301
25 1 12.976 15.6315 12.339
3 1 15.1724 17.148 12.2273
95 2 11.95 15.8419 12.0494
15 1 11.6552 16.6476 12.3653
49 1 10.9233 14.5233 11.7481
71 2 14.7251 16.283 11.8377
59 1 15.0224 15.5103 12.1568
67 2 15.8857 18.6543 11.9838
86 2 11.3387 18.632 12.755
