ITEM: TIMESTEP
18404000
ITEM: NUMBER OF ATOMS
336
ITEM: BOX BOUNDS pp pp pp
0.0000000000000000e+00 1.6167135238600000e+01
0.0000000000000000e+00 1.8668199539200000e+01
0.0000000000000000e+00 2.5747400283800001e+01
ITEM: ATOMS id type x y z
117 3 1.2464 1.98063 0.920997
141 3 3.97377 1.91397 1.01798
145 3 2.62001 1.28543 3.05762
165 3 4.01616 3.53122 3.05393
173 3 1.23334 3.5223 3.0446
101 3 2.65707 4.25288 1.0457
121 3 5.33917 4.25555 0.941862
186 3 5.34822 1.18203 3.05922
197 3 2.60283 4.26307 5.06062
213 3 1.26056 2.01554 5.14865
237 3 3.95477 1.98899 5.27256
217 3 5.226 4.47399 5.23182
241 3 2.51395 1.24599 7.31878
282 3 5.37152 1.11663 7.37795
261 3 3.84879 3.6225 7.37161
269 3 1.21191 3.56282 7.43394
333 3 4.04731 2.02163 9.39132
309 3 1.28573 2.04496 9.48592
293 3 2.56301 4.38127 9.41955
313 3 5.25526 4.38384 9.43224
2 1 2.9858 0.829723 12.16
58 1 4.86427 1.79365 12.2836
11 1 3.99745 3.08536 12.4362
77 2 4.10238 2.09043 12.6433
17 1 0.286582 4.49719 12.6224
105 3 3.89639 6.6156 0.948892
133 3 1.26092 6.66702 0.886205
161 3 1.26406 8.18101 3.0657
177 3 2.59654 5.85832 2.97719
181 3 4.00702 8.1631 3.00533
137 3 2.60793 8.96376 0.989982
109 3 5.31712 8.96739 0.92304
149 3 5.26561 5.95011 3.04657
98 3 0.00394316 8.89056 0.977645
245 3 5.33954 5.84339 7.32958
201 3 3.99805 6.75846 5.1829
229 3 1.29729 6.63535 5.18445
233 3 2.58626 9.0326 5.14154
273 3 2.60102 5.85202 7.27037
257 3 1.33102 8.16655 7.32557
277 3 4.02127 8.31921 7.30822
205 3 5.339 8.98877 5.10722
297 3 3.97902 6.64615 9.48734
325 3 1.35782 6.65196 9.40063
329 3 2.57548 8.96055 9.49561
301 3 5.28161 9.07067 9.51392
40 1 4.95409 7.55802 10.6686
55 1 3.53492 8.55607 11.94
92 2 3.41494 8.40965 12.7859
78 2 3.79342 5.29661 12.4881
56 1 3.09569 7.41894 12.7163
45 1 2.85868 5.34046 13.0062
13 1 3.43697 5.14083 11.5503
32 1 1.13917 5.29589 11.5011
73 2 0.947687 5.16209 12.5523
118 3 1.32198 11.2866 0.946478
142 3 3.98376 11.4018 0.937657
146 3 2.58446 10.5175 2.9499
166 3 4.00424 12.9037 3.03945
174 3 1.269 12.8667 3.00832
102 3 2.64378 13.6223 0.960883
122 3 5.30633 13.6094 0.937059
185 3 5.27485 10.5413 3.00909
214 3 1.26578 11.374 5.24092
238 3 3.92833 11.3432 5.14449
198 3 2.69031 13.6778 5.22781
242 3 2.67744 10.551 7.27846
262 3 4.04133 12.8872 7.29084
270 3 1.36388 12.9163 7.32956
310 3 1.28489 11.2807 9.46416
334 3 3.83678 11.3246 9.34388
294 3 2.55557 13.7364 9.44161
314 3 5.30025 13.7862 9.45426
281 3 5.36836 10.6229 7.4001
50 1 1.59475 13.8839 11.8432
62 1 1.67181 10.3872 11.7326
1 1 3.8991 12.8329 11.6178
5 1 2.32477 9.72657 12.9911
94 2 1.84522 10.6027 12.6901
65 2 4.28617 12.3586 12.4919
34 1 1.78119 13.7679 13.4147
16 1 3.53862 11.6735 12.634
31 1 0.849729 11.1264 13.8212
106 3 4.0406 15.9904 0.954412
134 3 1.20546 16.0385 0.974868
162 3 1.22306 17.6186 3.05804
178 3 2.59893 15.2299 2.96112
182 3 3.94828 17.6065 3.06368
138 3 2.64613 18.2953 0.936908
150 3 5.3825 15.2241 3.01609
110 3 5.36272 18.3141 0.973924
202 3 3.98696 15.9724 5.13331
230 3 1.33818 16.0258 5.23504
234 3 2.63827 18.3206 5.20159
206 3 5.36012 18.239 5.17364
274 3 2.58158 15.2109 7.331
302 3 5.35155 18.4035 9.4245
278 3 3.89433 17.5354 7.49109
258 3 1.26857 17.578 7.43973
330 3 2.58864 18.3203 9.54306
298 3 3.9384 15.9318 9.49154
326 3 1.18094 16.0099 9.38694
246 3 5.32677 15.1805 7.37883
36 1 3.11681 17.8804 12.5429
26 1 0.672188 18.5817 11.7354
70 2 3.96962 16.1053 11.833
66 2 2.63504 18.5831 11.9614
64 1 4.95157 15.8924 12.0642
6 1 3.36844 15.2369 11.9344
90 2 1.87208 14.4699 12.6572
114 3 6.63781 1.93639 0.935997
135 3 9.32665 2.02052 0.954154
159 3 8.0072 1.18295 3.0311
163 3 9.30562 3.50061 3.13062
189 3 6.5743 3.43317 3.08789
100 3 8.06842 4.37148 0.986176
139 3 10.6798 4.21472 1.0322
179 3 10.6776 1.18113 2.94903
196 3 7.99906 4.28019 5.22609
210 3 6.63905 1.93822 5.22587
231 3 9.38105 1.98267 5.24469
235 3 10.696 4.28521 5.23454
254 3 7.97482 1.22482 7.28915
331 3 10.5737 4.41018 9.439
275 3 10.728 1.25086 7.37418
286 3 6.61841 3.46697 7.37918
259 3 9.356 3.52133 7.44101
327 3 9.36873 2.00888 9.54023
306 3 6.73187 2.00867 9.46751
291 3 7.95718 4.33071 9.50444
39 1 8.67627 3.14153 11.8758
47 1 8.0034 4.51976 12.6987
20 1 10.3376 4.19356 12.6707
81 2 6.89845 1.16416 12.7384
83 2 8.50095 3.48729 12.7878
33 1 7.00907 1.06825 11.7191
37 1 7.48533 2.07333 13.0979
120 3 9.27798 6.5954 0.919419
125 3 6.66689 6.61315 0.95479
153 3 6.74449 8.21797 3.01561
172 3 7.93434 5.83497 3.06958
176 3 9.40598 8.24468 3.0688
132 3 8.0186 9.01253 0.869612
148 3 10.7179 5.84294 3.04208
104 3 10.686 9.07067 1.03875
200 3 10.7315 8.99758 5.28037
216 3 9.29677 6.61564 5.20077
221 3 6.68321 6.71855 5.26923
228 3 8.02492 8.99435 5.32351
272 3 9.34727 8.13759 7.34305
244 3 10.6301 5.88874 7.33487
296 3 10.5412 8.99961 9.49609
265 3 8.03043 5.75892 7.4185
249 3 6.6484 8.20744 7.37254
317 3 6.58667 6.68799 9.38316
312 3 9.30452 6.67249 9.42254
324 3 7.88962 8.9891 9.48736
74 2 10.433 8.85891 11.7215
60 1 7.41865 8.1042 12.0666
21 1 5.64807 6.13649 12.7638
8 1 9.00985 8.81007 11.6983
72 2 6.68016 5.97408 12.5956
87 2 7.9633 8.9498 11.6341
12 1 6.59293 5.54532 11.7135
113 3 6.64361 11.3725 0.914178
136 3 9.36467 11.4104 0.989156
160 3 8.05095 10.4836 3.05625
164 3 9.39629 12.8661 2.99477
190 3 6.67438 12.868 2.98979
99 3 8.01434 13.6642 0.874889
140 3 10.7237 13.6748 0.89742
180 3 10.7408 10.5819 3.10277
209 3 6.6352 11.2924 5.24321
232 3 9.3743 11.351 5.20107
195 3 8.05347 13.5811 5.14023
260 3 9.32409 12.7713 7.33984
276 3 10.721 10.5499 7.32665
236 3 10.6838 13.6326 5.11892
218 3 5.45792 13.6302 5.19292
332 3 10.6609 13.6037 9.35718
253 3 7.96514 10.557 7.37371
285 3 6.69201 12.8878 7.41398
328 3 9.23018 11.3076 9.44371
305 3 6.57776 11.4036 9.50969
292 3 8.14911 13.6194 9.508
30 1 6.62293 10.329 12.1351
85 2 10.7474 13.5468 11.6759
10 1 9.21064 13.3518 11.854
89 2 8.13786 13.4633 11.6599
82 2 6.61408 11.2505 11.8645
43 1 7.64752 12.6176 11.9455
54 1 5.55631 11.5275 11.8468
119 3 9.33277 15.9708 0.900209
126 3 6.68996 16.0189 0.83405
154 3 6.71251 17.5312 3.00393
171 3 8.03655 15.1657 2.98118
175 3 9.37487 17.5625 3.02225
131 3 8.01414 18.2377 0.937074
103 3 10.6623 18.2779 0.912995
147 3 10.7411 15.2223 3.00025
243 3 10.6501 15.2506 7.34977
227 3 8.04162 18.3168 5.17888
215 3 9.38763 15.9377 5.21119
222 3 6.76722 15.9349 5.21791
199 3 10.6845 18.215 5.29631
266 3 8.02233 15.1463 7.21361
271 3 9.27628 17.5138 7.37735
250 3 6.65464 17.5047 7.42786
311 3 9.383 15.9641 9.46049
318 3 6.7095 15.925 9.46466
323 3 7.95745 18.3117 9.49854
295 3 10.7353 18.3247 9.41376
27 1 7.31501 16.5579 12.0991
52 1 8.09283 18.4312 12.5473
91 2 8.5806 17.5155 12.5151
96 2 6.55624 15.8897 11.8008
53 1 6.89944 15.0034 11.941
51 1 9.08432 17.6424 11.728
46 1 10.5712 18.2134 13.0932
107 3 12.051 2.02079 1.0172
127 3 14.8187 2.033 1.07819
151 3 13.4119 1.15027 3.05711
155 3 14.6435 3.52432 3.06241
183 3 12.0266 3.50461 3.12623
111 3 13.4194 4.31803 1.08322
129 3 16.1206 4.23423 0.995184
169 3 16.0034 1.16021 3.14165
203 3 12.0262 1.93134 5.17138
223 3 14.7805 2.07763 5.31565
207 3 13.4293 4.30672 5.22627
247 3 13.4085 1.22797 7.35316
225 3 16.1071 4.36753 5.21667
267 3 16.1361 1.24022 7.43767
279 3 11.9976 3.4758 7.43947
251 3 14.6957 3.56783 7.41324
299 3 12.0311 1.93536 9.43298
319 3 14.7287 2.10113 9.48544
303 3 13.3754 4.19999 9.51443
321 3 16.0052 4.30764 9.62737
28 1 14.1926 2.21192 12.9005
29 1 14.9612 2.86327 11.8574
7 1 15.6636 0.846671 12.1375
68 2 12.6764 2.1204 14.0373
42 1 11.2332 0.344854 11.8256
80 2 15.1477 2.40523 12.7531
24 1 12.0052 1.36769 13.6613
57 1 11.9672 3.64531 12.9074
76 2 11.2873 4.13004 12.3466
67 2 15.8757 0.000746779 11.9766
38 1 12.6465 2.10177 15.0392
115 3 14.7308 6.61073 0.975052
144 3 12.048 6.71826 0.986306
168 3 12.0111 8.23754 3.0389
187 3 13.3571 5.87201 3.05122
192 3 14.7197 8.17155 3.09453
124 3 13.4403 9.0219 0.942921
157 3 16.0675 5.84615 3.03521
211 3 14.6956 6.66991 5.17983
240 3 11.9604 6.646 5.22163
220 3 13.3567 8.9886 5.22209
255 3 16.0667 5.89049 7.35493
287 3 14.6971 8.19046 7.33813
194 3 16.0533 8.95426 5.25673
283 3 13.3226 5.83406 7.42467
264 3 12.0126 8.13477 7.53243
289 3 16.0271 9.02853 9.40331
336 3 12.0183 6.62777 9.53088
307 3 14.7354 6.62861 9.4651
316 3 13.4402 9.03031 9.35986
18 1 10.9618 7.94323 12.0275
48 1 12.7262 6.88703 12.0721
44 1 11.6216 5.79922 11.9762
88 2 11.9198 6.67311 11.7552
84 2 14.7108 6.84669 11.9717
4 1 15.4658 6.0848 12.2882
14 1 14.9988 7.77529 12.2434
108 3 12.1147 11.2422 0.868889
128 3 14.7749 11.2834 0.975251
152 3 13.4463 10.578 2.99328
156 3 14.7934 12.8672 3.04913
184 3 12.1264 12.9141 3.03888
112 3 13.358 13.5992 0.911111
170 3 16.1202 10.5283 3.06913
130 3 16.0102 13.6725 0.902501
204 3 12.0483 11.268 5.21049
224 3 14.8015 11.3413 5.18046
208 3 13.4408 13.6604 5.22001
252 3 14.7684 12.9051 7.24554
280 3 12.0603 12.8903 7.30389
268 3 16.0161 10.5337 7.25611
248 3 13.4018 10.4386 7.28019
226 3 16.1381 13.6665 5.25887
322 3 16.1317 13.7441 9.39384
300 3 12.0038 11.3697 9.42412
320 3 14.7567 11.4349 9.28872
304 3 13.4986 13.6409 9.39062
61 1 13.9601 12.8234 12.04
41 1 14.7699 13.0146 13.3562
79 2 16.0589 11.6813 14.2555
93 2 13.9439 13.3495 12.9367
9 1 11.348 12.7642 11.6882
35 1 11.2655 10.1876 11.8765
69 2 11.723 11.1079 11.7212
22 1 12.7085 10.7708 11.9777
19 1 15.08 10.6606 12.7798
75 2 14.3194 10.1915 12.2272
23 1 14.8223 10.0525 11.3795
63 1 15.7854 11.2208 15.1541
116 3 14.8249 16.007 0.947114
143 3 12.0497 16.1106 0.897867
167 3 12.0818 17.5385 3.06227
188 3 13.4317 15.2314 3.07982
191 3 14.8279 17.5132 2.99279
123 3 13.4119 18.2635 0.903629
97 3 16.0818 18.371 0.920312
158 3 16.0525 15.1627 3.02274
212 3 14.7234 15.9678 5.20402
239 3 12.0139 15.9437 5.22809
219 3 13.5056 18.2638 5.14374
284 3 13.4147 15.2156 7.35312
256 3 16.1322 15.237 7.33815
193 3 16.0414 18.2961 5.22652
288 3 14.7465 17.5181 7.46196
263 3 12.091 17.5732 7.38759
308 3 14.7138 15.9332 9.47134
335 3 12.0629 16.0233 9.44617
315 3 13.4228 18.399 9.48312
290 3 16.132 18.3265 9.56143
49 1 11.1743 14.3546 11.8253
86 2 11.3557 18.5913 12.7433
71 2 14.7373 16.2604 11.7959
95 2 11.955 15.8934 12.0413
59 1 15.1953 15.3498 12.3569
3 1 15.2781 17.0793 12.0224
25 1 13.0225 15.6935 12.3501
15 1 11.7661 16.9152 12.4777
