ITEM: TIMESTEP
18404000
ITEM: NUMBER OF ATOMS
336
ITEM: BOX BOUNDS pp pp pp
0.0000000000000000e+00 1.6167135238600000e+01
0.0000000000000000e+00 1.8668199539200000e+01
0.0000000000000000e+00 2.5747400283800001e+01
ITEM: ATOMS id type x y z
117 3 1.25008 1.97069 0.943313
141 3 4.00265 1.88807 0.999988
145 3 2.62605 1.27535 3.02476
165 3 4.04408 3.54667 3.07681
173 3 1.23066 3.52174 3.06224
101 3 2.65969 4.26601 1.02734
186 3 5.3403 1.15556 3.08537
121 3 5.32904 4.25419 0.952086
213 3 1.25941 2.02586 5.13827
237 3 3.95597 2.01172 5.26718
197 3 2.60001 4.22472 5.09002
217 3 5.22218 4.4764 5.2268
261 3 3.84208 3.60454 7.33816
241 3 2.49917 1.24423 7.32731
282 3 5.33361 1.12378 7.38864
269 3 1.21459 3.59143 7.41945
333 3 4.0356 2.05291 9.36871
309 3 1.28512 2.04403 9.48979
293 3 2.53984 4.35066 9.41678
313 3 5.22783 4.37305 9.41157
77 2 4.05991 2.04367 12.5987
11 1 4.023 2.95425 12.7464
58 1 5.08119 1.75552 12.6389
2 1 3.04632 0.625937 12.2538
17 1 0.33559 4.44578 12.5622
26 1 0.563673 0.0216788 11.8417
105 3 3.8996 6.58445 0.933299
133 3 1.29008 6.66089 0.856787
161 3 1.27989 8.17476 3.06122
177 3 2.56347 5.90861 2.96537
181 3 3.97599 8.16457 3.02099
137 3 2.64689 8.98696 0.984021
109 3 5.29149 8.971 0.87174
149 3 5.2638 5.90596 3.06004
201 3 4.00165 6.78694 5.17657
229 3 1.29642 6.62112 5.19071
233 3 2.58546 9.03505 5.14647
277 3 4.02383 8.32516 7.29798
273 3 2.599 5.89016 7.27699
257 3 1.33164 8.17163 7.3191
245 3 5.34199 5.848 7.30136
205 3 5.35401 9.01831 5.11921
329 3 2.55609 8.95448 9.50285
325 3 1.38737 6.6647 9.39914
297 3 3.98232 6.61907 9.46177
301 3 5.25885 9.04041 9.5262
40 1 5.37339 7.43093 10.5161
56 1 3.19753 7.49459 13.1917
92 2 3.41615 8.42653 12.8074
55 1 3.33652 8.35625 11.9064
45 1 2.93497 5.48767 12.9328
13 1 3.62232 5.1075 11.5201
78 2 3.80423 5.34133 12.5461
32 1 1.23944 5.23627 11.6045
73 2 0.90001 5.22161 12.5328
118 3 1.32728 11.287 0.945011
142 3 3.98937 11.4096 0.950347
146 3 2.57025 10.5113 2.95836
166 3 4.00762 12.9014 3.04081
174 3 1.25784 12.8354 2.99229
102 3 2.6305 13.6418 0.953238
122 3 5.32592 13.6053 0.945361
185 3 5.26401 10.55 3.01552
214 3 1.249 11.3713 5.23493
238 3 3.93003 11.3373 5.1675
198 3 2.69614 13.6878 5.25058
242 3 2.68381 10.551 7.23255
262 3 4.01402 12.8912 7.30165
270 3 1.33992 12.9166 7.34436
334 3 3.84757 11.3155 9.34083
310 3 1.29271 11.3252 9.43833
294 3 2.58769 13.7462 9.41589
314 3 5.31251 13.766 9.46147
281 3 5.36061 10.6085 7.39723
62 1 1.61502 10.498 11.7189
1 1 4.10239 12.6631 11.4134
31 1 0.695899 11.185 13.6407
34 1 2.16227 13.764 13.2036
65 2 4.26601 12.3351 12.4342
94 2 1.80856 10.5562 12.7288
16 1 3.61232 11.7319 12.7428
5 1 2.59128 9.89404 12.9663
106 3 4.04692 16.0111 0.947511
134 3 1.26017 16.0562 0.985545
162 3 1.2187 17.63 3.05413
178 3 2.56799 15.2101 2.95238
182 3 3.92361 17.5897 3.08204
138 3 2.64812 18.3078 0.900148
110 3 5.35889 18.3206 1.0008
150 3 5.38654 15.2234 3.0031
202 3 3.98246 15.9507 5.14179
230 3 1.37717 16.0075 5.20339
234 3 2.65432 18.3207 5.17087
206 3 5.33454 18.2275 5.2173
274 3 2.62239 15.1982 7.33903
278 3 3.9143 17.5242 7.48825
258 3 1.24526 17.5819 7.42248
326 3 1.1868 16.0098 9.42291
298 3 3.90292 15.9095 9.49007
330 3 2.59332 18.3195 9.55441
246 3 5.33912 15.1464 7.3763
6 1 3.49455 15.4174 12.345
70 2 3.95715 16.095 11.7879
36 1 3.19161 17.8674 12.2209
50 1 1.82333 14.0863 11.7013
64 1 4.97253 16.1833 11.8851
66 2 2.64287 18.5942 11.8491
90 2 1.86183 14.534 12.6468
114 3 6.64318 1.92767 0.907689
135 3 9.31162 2.02862 0.962345
159 3 7.99872 1.19832 3.02008
163 3 9.31232 3.49217 3.15238
189 3 6.60258 3.41817 3.09433
100 3 8.06866 4.35449 1.03491
179 3 10.6755 1.2012 2.97608
139 3 10.6793 4.19098 1.0012
196 3 7.99734 4.26632 5.20248
210 3 6.64756 1.91935 5.2249
231 3 9.40075 1.98896 5.25875
254 3 8.00191 1.21176 7.33289
235 3 10.6865 4.30118 5.20914
275 3 10.7161 1.23491 7.37121
259 3 9.36165 3.52657 7.42136
286 3 6.59121 3.47049 7.35766
306 3 6.72417 2.00147 9.46752
327 3 9.38748 2.00451 9.55379
291 3 8.006 4.32136 9.46727
331 3 10.5603 4.41202 9.46501
47 1 7.86747 4.28424 12.9041
81 2 6.89455 1.18522 12.7998
20 1 10.3747 3.83864 12.5017
37 1 7.30524 2.12178 13.2348
39 1 8.72237 3.23479 11.7734
83 2 8.45626 3.54449 12.7731
33 1 7.20967 1.29898 11.7159
120 3 9.27567 6.60391 0.907974
125 3 6.66215 6.60306 0.952135
153 3 6.79092 8.19766 3.027
172 3 7.96261 5.81378 3.06839
176 3 9.36682 8.20539 3.09339
132 3 7.96107 9.04438 0.880075
148 3 10.7509 5.84798 3.0689
104 3 10.7112 9.09689 1.02818
216 3 9.30904 6.61085 5.19471
221 3 6.67999 6.72397 5.24356
228 3 7.98261 8.99946 5.31158
200 3 10.727 8.99198 5.29041
272 3 9.34443 8.14958 7.33049
249 3 6.66537 8.2269 7.35422
296 3 10.5439 9.00354 9.5103
265 3 8.02517 5.77014 7.41389
312 3 9.28976 6.69594 9.45095
317 3 6.59708 6.7002 9.39966
324 3 7.93613 9.03368 9.49313
244 3 10.6159 5.88473 7.37482
21 1 5.6266 6.14636 12.7128
8 1 9.08401 8.8475 11.7545
12 1 6.67404 5.64607 11.6018
72 2 6.66699 6.00823 12.5284
74 2 10.5048 8.9019 11.711
87 2 7.9286 8.93434 11.6591
60 1 7.6348 7.95234 12.1137
113 3 6.62153 11.3892 0.878665
136 3 9.3777 11.4336 0.974579
160 3 8.04586 10.5093 3.07295
164 3 9.3884 12.9141 3.0068
190 3 6.67107 12.8712 2.98894
99 3 8.01604 13.6395 0.869229
140 3 10.7179 13.6831 0.91
180 3 10.7301 10.5808 3.08591
236 3 10.6724 13.5877 5.11833
209 3 6.63027 11.2925 5.21882
232 3 9.34978 11.3591 5.18395
195 3 8.04789 13.5867 5.14758
260 3 9.29191 12.7706 7.33922
218 3 5.423 13.6022 5.2199
332 3 10.6443 13.6272 9.36427
253 3 7.96287 10.5638 7.39484
285 3 6.68923 12.8893 7.45268
276 3 10.7171 10.5752 7.36228
328 3 9.24692 11.2953 9.40935
305 3 6.58138 11.3788 9.502
292 3 8.16055 13.6061 9.50092
82 2 6.65642 11.2729 11.8893
30 1 6.78485 10.2431 12.2437
10 1 9.13618 13.3998 12.0425
54 1 5.56808 11.6015 12.0924
89 2 8.075 13.4674 11.6852
43 1 7.49991 12.5001 12.1869
85 2 10.7127 13.5335 11.7287
119 3 9.32884 15.9893 0.911223
126 3 6.68805 16.0344 0.837357
154 3 6.6931 17.5019 3.02853
171 3 8.00026 15.1843 2.99414
175 3 9.3879 17.5698 3.01899
131 3 8.01515 18.1913 0.93965
103 3 10.6146 18.3054 0.916058
147 3 10.7515 15.2435 3.02065
215 3 9.38117 15.949 5.21247
222 3 6.72986 15.9475 5.23406
227 3 8.03099 18.3261 5.18344
199 3 10.6795 18.232 5.3179
266 3 8.02043 15.1478 7.2131
295 3 10.7509 18.3163 9.4052
250 3 6.63816 17.5202 7.40262
271 3 9.31603 17.5372 7.40589
318 3 6.69988 15.9113 9.45392
311 3 9.36433 15.9699 9.46015
323 3 7.96373 18.3447 9.47805
243 3 10.6509 15.2208 7.38948
302 3 5.39033 18.3826 9.43349
52 1 7.84041 18.3446 12.7812
27 1 7.23472 16.4803 12.1008
53 1 6.97689 15.1262 12.3245
91 2 8.47417 17.5231 12.5091
96 2 6.58941 15.8879 11.7802
51 1 9.2585 17.5962 11.7091
46 1 10.4136 18.2808 13.298
107 3 12.069 2.0377 1.028
127 3 14.8087 2.02585 1.07031
151 3 13.4186 1.14737 3.06579
155 3 14.6464 3.53006 3.03359
183 3 12.0088 3.49325 3.11612
111 3 13.4315 4.31698 1.06101
169 3 15.9875 1.15933 3.11599
129 3 16.0829 4.23065 1.01262
203 3 12.0288 1.94751 5.16295
223 3 14.7729 2.06872 5.32106
207 3 13.418 4.31606 5.23674
247 3 13.4216 1.21837 7.3511
225 3 16.1283 4.35844 5.2143
279 3 12.0012 3.46498 7.42285
251 3 14.7221 3.56479 7.38143
299 3 12.0136 1.91112 9.42612
319 3 14.741 2.10469 9.47449
303 3 13.3727 4.22456 9.51593
267 3 16.1347 1.22765 7.4598
321 3 15.9756 4.29073 9.62319
29 1 15.198 2.64308 11.7115
7 1 15.6053 0.771064 12.3661
76 2 11.3052 4.14452 12.3336
80 2 15.185 2.40786 12.7674
68 2 12.6489 2.1057 14.0505
28 1 14.131 2.36143 13.1606
57 1 11.9313 3.62126 12.9372
24 1 12.0371 1.52335 13.6175
42 1 11.0254 0.569731 11.8061
67 2 15.7807 0.0214792 11.9587
38 1 12.9083 2.05509 15.0037
115 3 14.7126 6.62519 0.969594
144 3 12.0566 6.69794 0.947479
168 3 12.0151 8.25667 3.06468
187 3 13.3765 5.87048 3.03736
192 3 14.7264 8.16674 3.12442
124 3 13.4384 9.02549 0.927041
157 3 16.0582 5.87096 3.02676
98 3 16.1504 8.90846 0.972081
211 3 14.7276 6.66125 5.17088
240 3 11.9487 6.63584 5.27372
220 3 13.3418 8.96871 5.21121
255 3 16.082 5.86465 7.34883
194 3 16.0546 8.98109 5.25422
283 3 13.3363 5.79708 7.39065
287 3 14.7067 8.2086 7.39023
264 3 11.9992 8.14881 7.50145
289 3 16.0663 9.04597 9.39287
336 3 12.0483 6.64494 9.53813
307 3 14.7226 6.60543 9.45238
316 3 13.4228 9.07046 9.38935
14 1 14.8388 8.01339 11.8848
84 2 14.7326 6.8649 11.8694
4 1 15.5545 6.38696 12.3662
88 2 11.946 6.73532 11.7842
48 1 12.7885 6.87886 12.0318
44 1 11.6573 5.67669 11.8308
18 1 10.832 7.85714 11.8053
108 3 12.1013 11.2402 0.918832
128 3 14.7339 11.3225 0.983889
152 3 13.4542 10.5704 2.99532
156 3 14.8103 12.8911 3.02852
184 3 12.13 12.917 3.05885
112 3 13.3436 13.6061 0.903774
170 3 16.1298 10.5085 3.07926
130 3 16.0482 13.6856 0.907934
204 3 12.0362 11.2208 5.20808
224 3 14.8271 11.3216 5.15474
208 3 13.4107 13.6551 5.21038
280 3 12.0469 12.8631 7.29282
252 3 14.7734 12.8973 7.24185
248 3 13.3976 10.4674 7.27997
268 3 16.0267 10.5038 7.258
226 3 16.1162 13.704 5.27394
320 3 14.7538 11.4391 9.29727
300 3 11.9899 11.3599 9.39572
304 3 13.4654 13.6405 9.41235
322 3 16.1082 13.7373 9.34684
93 2 13.9691 13.3115 12.8181
75 2 14.2875 10.1926 12.2182
22 1 12.6842 10.7047 12.1964
19 1 14.9719 10.7273 12.6569
35 1 11.2477 9.86619 11.8777
69 2 11.7412 11.0302 11.693
61 1 14.1251 12.9848 11.9137
9 1 11.3122 12.7481 11.8534
79 2 16.0067 11.6743 14.268
41 1 14.7391 12.9952 13.58
23 1 14.5194 9.88914 11.3128
63 1 15.9836 11.3371 15.4541
116 3 14.8454 16.0122 0.976052
143 3 12.0536 16.1204 0.896695
167 3 12.0994 17.509 3.06573
188 3 13.4136 15.2401 3.03675
191 3 14.8323 17.5069 2.99659
123 3 13.3889 18.2676 0.90919
97 3 16.0685 18.3702 0.906055
158 3 16.0726 15.1737 3.0034
193 3 16.0583 18.2799 5.21649
212 3 14.6859 15.9738 5.22055
239 3 12.0088 15.9356 5.20912
219 3 13.5165 18.2689 5.17354
256 3 16.1385 15.2722 7.34728
284 3 13.4108 15.1913 7.35674
263 3 12.0916 17.5563 7.3894
288 3 14.7606 17.48 7.46737
335 3 12.058 16.0104 9.46342
308 3 14.7408 15.9309 9.4898
315 3 13.4096 18.3586 9.5374
290 3 16.145 18.3301 9.558
95 2 11.9122 15.9031 12.0353
3 1 15.2841 17.0633 12.1074
59 1 14.9775 15.4809 12.5952
49 1 11.1992 14.4061 12.0443
71 2 14.7388 16.3096 11.8848
15 1 11.725 16.7564 12.5979
25 1 12.8846 15.8937 12.0935
86 2 11.3271 18.6054 12.7466
