ITEM: TIMESTEP
18404000
ITEM: NUMBER OF ATOMS
336
ITEM: BOX BOUNDS pp pp pp
0.0000000000000000e+00 1.6167135238600000e+01
0.0000000000000000e+00 1.8668199539200000e+01
0.0000000000000000e+00 2.5747400283800001e+01
ITEM: ATOMS id type x y z
117 3 1.25884 1.97872 0.940052
141 3 4.00803 1.8852 0.992398
145 3 2.60895 1.26336 3.048
165 3 4.03961 3.52864 3.0628
173 3 1.24779 3.52816 3.03916
101 3 2.653 4.27496 1.05766
186 3 5.33416 1.17336 3.0732
121 3 5.31553 4.22964 0.976196
213 3 1.29454 2.00865 5.13491
237 3 3.97594 2.00276 5.26504
197 3 2.59634 4.24703 5.04766
217 3 5.23691 4.49799 5.25267
241 3 2.52821 1.26704 7.28632
282 3 5.34662 1.10694 7.37244
269 3 1.21854 3.58212 7.43437
261 3 3.87051 3.59563 7.36334
309 3 1.30245 2.04424 9.48497
333 3 4.05882 2.02157 9.37612
293 3 2.56257 4.37136 9.4301
313 3 5.22855 4.37695 9.42699
58 1 5.02776 1.77648 12.6072
11 1 4.04688 2.95588 12.5842
2 1 3.30412 0.607341 12.2787
77 2 4.08708 2.01756 12.6056
17 1 0.515377 4.30024 12.8475
26 1 0.788845 0.0869715 12.0229
105 3 3.91433 6.61008 0.953353
133 3 1.27211 6.62484 0.895475
161 3 1.27559 8.174 3.02476
177 3 2.56597 5.88914 2.95925
181 3 4.00616 8.16534 3.01887
137 3 2.60249 8.98051 1.00046
109 3 5.28204 8.97221 0.895143
149 3 5.2744 5.91495 3.04211
245 3 5.3427 5.84577 7.30795
201 3 3.98889 6.79717 5.18336
229 3 1.29318 6.62312 5.16402
233 3 2.56877 9.00849 5.1505
277 3 4.05107 8.3127 7.2872
273 3 2.59682 5.86509 7.28165
257 3 1.33523 8.19793 7.3249
205 3 5.37609 9.02805 5.12041
301 3 5.25215 9.06978 9.49836
297 3 3.95948 6.62186 9.47151
325 3 1.37534 6.65113 9.39363
329 3 2.56769 8.96039 9.50898
40 1 5.05283 7.44438 10.5025
73 2 0.953904 5.19308 12.5405
56 1 3.02632 7.51931 12.645
55 1 3.68251 8.43423 11.6362
78 2 3.78625 5.34281 12.5192
13 1 3.65478 5.10976 11.6233
45 1 2.98763 5.4525 13.1889
92 2 3.48728 8.42901 12.7598
32 1 1.08942 5.24299 11.7213
118 3 1.30726 11.2648 0.944384
142 3 3.99675 11.4134 0.946063
146 3 2.58278 10.497 2.95782
166 3 3.98851 12.8924 3.03526
174 3 1.24358 12.856 3.02086
102 3 2.61532 13.6609 0.955281
122 3 5.32398 13.5829 0.919925
185 3 5.25902 10.592 2.99686
214 3 1.25142 11.3655 5.23662
238 3 3.91505 11.3369 5.16726
198 3 2.6734 13.6854 5.23781
242 3 2.65627 10.5679 7.28448
262 3 4.03112 12.8676 7.28711
270 3 1.3373 12.9208 7.32377
314 3 5.29826 13.7996 9.44758
334 3 3.85739 11.3406 9.33337
310 3 1.29063 11.2761 9.45891
294 3 2.58246 13.7574 9.43048
281 3 5.35174 10.5946 7.38871
31 1 0.653858 11.0894 14.05
50 1 1.83642 13.895 11.6824
94 2 1.83711 10.6581 12.7018
62 1 1.992 10.4966 11.8383
34 1 2.10032 13.672 13.4269
65 2 4.24285 12.3731 12.4012
16 1 3.34869 11.9239 12.4725
1 1 3.96902 12.6694 11.4619
5 1 2.34494 9.82818 13.1561
106 3 4.05456 16.0023 0.960036
134 3 1.23486 16.0434 0.969543
162 3 1.21039 17.6108 3.03501
178 3 2.56536 15.217 2.94655
182 3 3.95565 17.6025 3.0843
138 3 2.67046 18.316 0.93426
110 3 5.35945 18.3038 0.97463
150 3 5.38888 15.2164 3.01407
246 3 5.35801 15.1491 7.33758
202 3 3.97513 15.99 5.14809
230 3 1.33891 16.0128 5.24577
234 3 2.63106 18.3203 5.2125
206 3 5.35188 18.2275 5.19046
274 3 2.58388 15.2059 7.34634
302 3 5.33588 18.3934 9.42676
258 3 1.25019 17.5871 7.4392
278 3 3.91756 17.5415 7.47169
326 3 1.19822 16.041 9.40972
298 3 3.91276 15.9058 9.50082
330 3 2.60502 18.3196 9.57811
90 2 1.86408 14.4408 12.7057
70 2 3.95567 16.0416 11.8297
36 1 3.05911 17.6597 12.3379
64 1 4.93847 15.9343 11.7848
6 1 3.12397 15.3252 12.0788
66 2 2.68835 18.5012 11.9172
114 3 6.64082 1.9267 0.959972
135 3 9.29811 2.02849 0.975707
159 3 8.01949 1.19046 3.01145
163 3 9.30284 3.49569 3.14521
189 3 6.60528 3.42522 3.08627
100 3 8.04931 4.33479 1.00134
139 3 10.6785 4.22355 1.00618
179 3 10.6813 1.22103 2.97015
235 3 10.6863 4.2777 5.20233
210 3 6.66544 1.94365 5.24002
231 3 9.38531 1.98287 5.22485
196 3 8.00003 4.28793 5.21108
254 3 7.9768 1.20118 7.29885
286 3 6.61322 3.48397 7.35927
259 3 9.39038 3.54509 7.4248
327 3 9.35804 1.99823 9.55478
306 3 6.71908 2.02454 9.4804
291 3 7.98715 4.31087 9.45923
331 3 10.5824 4.38743 9.45336
275 3 10.7275 1.2352 7.35789
47 1 7.92113 4.2963 12.9496
83 2 8.51066 3.50195 12.8261
33 1 6.93239 1.27534 11.7764
39 1 8.65446 3.42838 11.9145
37 1 7.56806 2.02722 13.048
81 2 6.95974 1.20382 12.8319
20 1 10.4115 4.17707 12.8036
120 3 9.29276 6.60671 0.915884
125 3 6.68738 6.60756 0.971106
153 3 6.75721 8.23378 2.99848
172 3 7.93577 5.80843 3.04114
176 3 9.39311 8.23175 3.09011
132 3 7.96314 9.00493 0.899941
148 3 10.7146 5.83271 3.02388
104 3 10.6987 9.09533 1.0248
200 3 10.7444 8.99223 5.27877
216 3 9.30891 6.60437 5.15771
221 3 6.68832 6.74337 5.27723
228 3 8.00039 9.0034 5.31533
272 3 9.34552 8.15046 7.33681
244 3 10.6369 5.90731 7.32538
296 3 10.5463 8.99076 9.51285
265 3 8.03557 5.77986 7.4247
249 3 6.6493 8.22905 7.36609
312 3 9.29003 6.68614 9.42863
317 3 6.61913 6.71149 9.40676
324 3 7.89348 8.98966 9.47958
21 1 5.63357 6.0432 12.5031
74 2 10.4371 8.87438 11.7503
8 1 9.08715 8.735 11.7155
60 1 7.62317 8.03562 11.8574
72 2 6.64693 5.91121 12.5255
87 2 7.89867 8.91068 11.6175
12 1 6.74305 5.63895 11.5234
113 3 6.64215 11.3787 0.900196
136 3 9.34656 11.3989 0.952377
160 3 8.04992 10.4913 3.05913
164 3 9.3859 12.9074 3.00624
190 3 6.69315 12.8427 2.99948
99 3 8.00632 13.6364 0.905017
140 3 10.734 13.6527 0.905606
180 3 10.7026 10.5855 3.07828
236 3 10.684 13.6032 5.1152
209 3 6.62796 11.295 5.22191
232 3 9.36574 11.3465 5.19102
195 3 8.03584 13.5488 5.16005
260 3 9.28501 12.782 7.32545
276 3 10.6861 10.5876 7.32854
218 3 5.40969 13.6181 5.1906
253 3 7.95216 10.5488 7.40143
285 3 6.68406 12.9072 7.40675
332 3 10.6714 13.6417 9.36483
328 3 9.26044 11.3095 9.41616
305 3 6.57442 11.4001 9.49487
292 3 8.14474 13.6131 9.52279
89 2 8.07417 13.4955 11.6519
82 2 6.57942 11.2233 11.9541
43 1 7.37868 12.7377 12.0206
54 1 5.62547 11.54 12.3315
10 1 9.05927 13.3991 11.8797
30 1 6.69994 10.2334 12.2545
85 2 10.7112 13.5376 11.6805
119 3 9.30425 15.981 0.909022
126 3 6.69847 16.0152 0.821741
154 3 6.69478 17.5052 3.00497
171 3 8.02559 15.2052 3.00229
175 3 9.36147 17.5308 3.0202
131 3 8.03226 18.2381 0.918884
103 3 10.6348 18.2738 0.91363
147 3 10.7507 15.2406 3.0038
215 3 9.38589 15.9336 5.20349
222 3 6.74766 15.9086 5.21981
227 3 8.04186 18.3242 5.17728
199 3 10.7102 18.217 5.31293
266 3 8.04816 15.1499 7.22341
243 3 10.636 15.2481 7.37104
271 3 9.2882 17.5241 7.39525
250 3 6.6509 17.4998 7.41019
311 3 9.36023 15.9734 9.47262
318 3 6.70993 15.9216 9.45687
323 3 7.96248 18.3126 9.48293
295 3 10.7427 18.3129 9.3996
52 1 8.10168 18.6032 12.6249
91 2 8.55411 17.6046 12.5793
51 1 9.13186 17.4183 11.8139
53 1 6.95033 15.0473 12.0679
96 2 6.57249 15.8901 11.8329
27 1 7.33322 16.4829 12.1177
46 1 10.3249 18.4463 13.0918
107 3 12.0427 2.01387 1.00339
127 3 14.7933 2.03983 1.05348
151 3 13.4369 1.14318 3.05696
155 3 14.6374 3.52488 3.05589
183 3 12.0455 3.51971 3.1318
111 3 13.432 4.31907 1.06037
129 3 16.0933 4.22633 0.989027
169 3 16.0027 1.14916 3.10977
203 3 12.0138 1.93761 5.17529
223 3 14.7861 2.04989 5.30746
207 3 13.4011 4.29225 5.25096
225 3 16.1301 4.35632 5.21328
267 3 16.1338 1.25257 7.42268
279 3 12.0057 3.46194 7.43641
251 3 14.7021 3.57121 7.37326
247 3 13.4256 1.20199 7.36707
299 3 12.0301 1.90459 9.44613
319 3 14.7332 2.10149 9.49421
303 3 13.3828 4.20834 9.50909
321 3 15.985 4.30466 9.63341
57 1 11.6453 3.62328 13.0925
68 2 12.6864 2.19154 14.1115
29 1 14.7828 2.83449 11.8128
24 1 11.9888 1.53232 13.7999
7 1 15.543 0.833116 12.4019
80 2 15.1186 2.40298 12.8024
28 1 14.311 1.95285 13.0686
76 2 11.2816 4.0882 12.3475
42 1 11.0721 0.321983 11.8208
38 1 12.7728 1.97844 15.1152
115 3 14.7214 6.57651 0.961311
144 3 12.0176 6.71952 0.986906
168 3 12.0198 8.2551 3.03621
187 3 13.3799 5.86059 3.03456
192 3 14.7306 8.16766 3.08657
124 3 13.4375 9.02395 0.931015
157 3 16.0583 5.83122 3.05598
98 3 16.1621 8.88453 0.984908
194 3 16.0548 8.96624 5.22379
211 3 14.7098 6.65267 5.17422
240 3 11.9422 6.64905 5.25347
220 3 13.3652 8.99881 5.22652
255 3 16.0626 5.88312 7.3721
283 3 13.3211 5.82652 7.43382
264 3 11.9854 8.16465 7.50084
287 3 14.6962 8.20887 7.37958
336 3 12.0168 6.64876 9.52228
307 3 14.7387 6.61775 9.45414
316 3 13.4273 9.0376 9.3897
289 3 16.0552 9.03669 9.36323
88 2 11.8981 6.7384 11.7056
48 1 12.8634 6.7304 11.9421
14 1 14.8795 7.61401 12.217
44 1 11.492 5.76606 12.0636
4 1 15.4843 6.2958 12.1008
84 2 14.7868 6.84522 11.8642
18 1 11.1057 8.16971 11.7264
108 3 12.1203 11.2934 0.885535
128 3 14.7851 11.3181 0.994582
152 3 13.4163 10.5549 3.02565
156 3 14.8072 12.8984 3.04171
184 3 12.1197 12.9216 3.00275
112 3 13.36 13.6105 0.922776
170 3 16.1067 10.5404 3.06364
130 3 16.045 13.6497 0.880452
204 3 12.0618 11.256 5.20589
224 3 14.7592 11.3266 5.16282
208 3 13.4313 13.625 5.21831
268 3 16.0373 10.498 7.2774
252 3 14.7925 12.9162 7.2478
280 3 12.0652 12.866 7.2983
248 3 13.3935 10.469 7.30695
226 3 16.1276 13.6733 5.2624
322 3 16.1276 13.7252 9.3804
300 3 11.9829 11.3563 9.41227
320 3 14.7532 11.4262 9.29305
304 3 13.4744 13.6225 9.40231
61 1 14.1318 12.8727 12.0897
41 1 14.582 12.7949 13.3599
79 2 15.9797 11.6958 14.2811
35 1 11.1376 10.1775 11.7701
69 2 11.7562 11.0359 11.759
9 1 11.5139 12.8156 11.7179
22 1 12.6124 10.8305 11.9862
19 1 14.8792 10.9103 12.5707
93 2 13.9874 13.3328 12.8422
75 2 14.3266 10.2167 12.2444
23 1 14.7886 9.96919 11.2801
63 1 15.8301 11.5384 15.0744
116 3 14.8283 16.0188 0.964934
143 3 12.0607 16.1128 0.886206
167 3 12.0789 17.5262 3.0838
188 3 13.4372 15.2419 3.08358
191 3 14.8086 17.5065 2.98894
123 3 13.4148 18.2277 0.88716
97 3 16.0748 18.3799 0.903641
158 3 16.0619 15.1607 3.04396
212 3 14.7306 15.9654 5.20824
239 3 12.0104 15.9169 5.19064
219 3 13.5281 18.2691 5.16974
193 3 16.0448 18.292 5.2057
256 3 16.1274 15.2604 7.33039
284 3 13.4406 15.2203 7.37191
263 3 12.0612 17.5845 7.39834
288 3 14.7437 17.4912 7.48476
335 3 12.0499 16.0149 9.4654
308 3 14.7479 15.95 9.47903
315 3 13.4163 18.3781 9.49926
290 3 16.1248 18.3224 9.57632
95 2 11.9805 15.8673 12.0595
25 1 12.811 15.5113 12.6139
3 1 15.1685 17.0617 12.1235
49 1 11.2598 14.3691 11.9867
71 2 14.7539 16.2462 11.8464
15 1 11.5474 16.6633 12.4035
59 1 15.0899 15.4773 12.6072
67 2 15.8839 18.6079 11.9513
86 2 11.3301 18.6337 12.778
