ITEM: TIMESTEP
18404000
ITEM: NUMBER OF ATOMS
336
ITEM: BOX BOUNDS pp pp pp
0.0000000000000000e+00 1.6167135238600000e+01
0.0000000000000000e+00 1.8668199539200000e+01
0.0000000000000000e+00 2.5747400283800001e+01
ITEM: ATOMS id type x y z
117 3 1.24708 1.96027 0.933318
141 3 4.00785 1.88867 0.999773
145 3 2.62664 1.27377 3.01246
165 3 4.04214 3.54433 3.07579
173 3 1.24465 3.51613 3.06097
101 3 2.66111 4.2578 1.02916
186 3 5.33485 1.15077 3.07955
121 3 5.32848 4.24374 0.961883
213 3 1.27836 2.03721 5.14017
237 3 3.95751 2.00657 5.27655
197 3 2.60929 4.21188 5.08436
217 3 5.22315 4.48221 5.21611
241 3 2.50429 1.24011 7.32272
282 3 5.33634 1.12694 7.38758
261 3 3.84873 3.60627 7.3645
269 3 1.2176 3.59223 7.41664
333 3 4.03138 2.05084 9.3696
309 3 1.27855 2.04022 9.49706
293 3 2.53954 4.35806 9.41501
313 3 5.21832 4.37285 9.40971
11 1 3.9579 3.00049 12.7384
58 1 5.08377 1.78561 12.6261
77 2 4.07061 2.06659 12.5755
2 1 3.02888 0.529274 12.1997
17 1 0.196653 4.39009 12.5184
26 1 0.62206 0.0634759 11.9646
105 3 3.89883 6.5838 0.938737
133 3 1.28994 6.65426 0.856858
161 3 1.26362 8.1702 3.06631
177 3 2.56742 5.90668 2.96418
181 3 3.97415 8.17414 3.0253
137 3 2.64011 8.98881 0.992504
109 3 5.30162 8.98006 0.874584
149 3 5.26049 5.90306 3.05765
245 3 5.33963 5.84367 7.30203
201 3 4.01412 6.79271 5.1725
229 3 1.30082 6.62003 5.20549
233 3 2.58044 9.02199 5.15415
277 3 4.0299 8.32115 7.29936
273 3 2.58936 5.88345 7.27456
257 3 1.34113 8.18137 7.33397
205 3 5.3587 9.01617 5.11641
325 3 1.38884 6.66952 9.39313
297 3 3.97283 6.61345 9.4567
329 3 2.55224 8.95823 9.511
301 3 5.26447 9.05392 9.52902
56 1 3.22678 7.60169 13.2266
92 2 3.40726 8.42962 12.7841
78 2 3.78361 5.33593 12.5251
45 1 2.94464 5.47445 12.9513
13 1 3.62639 5.22239 11.5343
55 1 3.29923 8.26421 11.8801
73 2 0.905242 5.20717 12.5042
32 1 1.19945 5.12408 11.6415
118 3 1.32124 11.2858 0.949729
142 3 3.99129 11.4025 0.949676
146 3 2.58041 10.5119 2.96237
166 3 4.00975 12.9126 3.05107
174 3 1.25402 12.8352 2.99648
102 3 2.62999 13.6586 0.947456
185 3 5.25889 10.5612 3.01097
122 3 5.30917 13.5923 0.946322
214 3 1.25318 11.3638 5.23896
238 3 3.93352 11.3377 5.1726
198 3 2.69747 13.6943 5.25014
242 3 2.67942 10.5522 7.23168
262 3 4.01379 12.8824 7.30951
270 3 1.34761 12.9217 7.33201
310 3 1.29139 11.3213 9.44606
334 3 3.8442 11.3092 9.34502
294 3 2.59082 13.7559 9.40424
281 3 5.35715 10.6189 7.38407
314 3 5.30875 13.7727 9.45689
5 1 2.58089 9.8542 12.9364
1 1 4.02733 12.7042 11.4094
34 1 2.13287 13.6581 13.1839
62 1 1.70902 10.4665 11.805
94 2 1.81331 10.5998 12.7507
16 1 3.61971 11.6879 12.7082
65 2 4.26637 12.313 12.4044
31 1 0.668369 11.1813 13.7453
106 3 4.0434 16.0039 0.944954
134 3 1.27362 16.0565 0.969513
162 3 1.21045 17.6182 3.05001
178 3 2.56184 15.2255 2.9544
182 3 3.91829 17.5975 3.07958
138 3 2.65738 18.3024 0.898768
110 3 5.35274 18.3197 0.986052
150 3 5.38481 15.2191 2.99988
202 3 3.9869 15.9449 5.14772
230 3 1.37141 16.0085 5.20935
234 3 2.65668 18.3341 5.17423
206 3 5.33581 18.2233 5.22239
274 3 2.62499 15.1942 7.32699
278 3 3.92186 17.5171 7.48664
258 3 1.25474 17.5866 7.42723
326 3 1.20546 16.0064 9.41868
298 3 3.90461 15.9136 9.49133
330 3 2.60376 18.3076 9.54989
246 3 5.33093 15.1309 7.36713
6 1 3.50015 15.4169 12.3649
90 2 1.86776 14.5148 12.6524
66 2 2.63678 18.5621 11.804
50 1 1.8263 14.1259 11.7377
64 1 5.05977 16.1981 11.935
70 2 3.94941 16.1236 11.7872
36 1 3.14416 17.8273 12.2095
114 3 6.6343 1.92325 0.922169
135 3 9.31525 2.02595 0.959679
159 3 7.98983 1.19477 3.02547
163 3 9.31272 3.50116 3.14327
189 3 6.60237 3.41933 3.09071
100 3 8.05924 4.35797 1.0356
139 3 10.6812 4.17923 0.990447
179 3 10.6862 1.20468 2.98644
210 3 6.63861 1.933 5.22349
231 3 9.39918 1.99463 5.26627
196 3 7.99388 4.25293 5.20003
235 3 10.694 4.29322 5.20604
254 3 7.99526 1.21411 7.3255
331 3 10.5644 4.4076 9.46088
286 3 6.58598 3.4698 7.37537
259 3 9.36059 3.52935 7.42737
306 3 6.71723 2.00512 9.47398
327 3 9.38275 1.99829 9.56036
291 3 8.00984 4.32315 9.46644
275 3 10.7231 1.22385 7.37148
33 1 7.08068 1.33902 11.6918
47 1 7.86419 4.11237 12.9731
39 1 8.69063 3.30243 11.747
37 1 7.27949 2.18837 13.2155
83 2 8.46276 3.55001 12.7934
81 2 6.87491 1.19947 12.8195
20 1 10.3537 3.8338 12.6058
120 3 9.2644 6.59528 0.909714
125 3 6.66328 6.60101 0.96009
153 3 6.79015 8.20507 3.02845
172 3 7.95576 5.83084 3.05735
176 3 9.36173 8.20991 3.09725
132 3 7.96033 9.04884 0.871068
148 3 10.7576 5.84832 3.07222
104 3 10.7011 9.09257 1.02668
216 3 9.29981 6.61033 5.19194
221 3 6.67852 6.72632 5.24524
228 3 7.98153 9.00694 5.31143
200 3 10.7337 8.9877 5.29162
272 3 9.33809 8.1443 7.323
249 3 6.68325 8.22535 7.35531
296 3 10.5455 8.99746 9.51054
265 3 8.00865 5.76672 7.40362
317 3 6.59749 6.70369 9.402
312 3 9.28439 6.69991 9.45991
324 3 7.92784 9.03125 9.48652
244 3 10.6105 5.89063 7.37361
40 1 5.48359 7.58433 10.6557
21 1 5.63454 6.21369 12.8255
8 1 9.05449 8.86471 11.678
87 2 7.89363 8.9419 11.6552
74 2 10.4777 8.88475 11.6942
12 1 6.71541 5.66868 11.5679
72 2 6.68585 5.96848 12.5224
60 1 7.62322 7.90143 12.0453
113 3 6.62579 11.3819 0.880032
136 3 9.3731 11.4269 0.965859
160 3 8.04794 10.5062 3.07118
164 3 9.39089 12.918 3.00817
190 3 6.67535 12.8706 2.9922
99 3 8.00924 13.6452 0.883632
140 3 10.7109 13.6831 0.91694
180 3 10.7275 10.5836 3.07378
276 3 10.7126 10.5744 7.35364
209 3 6.62621 11.2905 5.226
232 3 9.35294 11.3568 5.19118
195 3 8.05253 13.5862 5.15739
260 3 9.28336 12.7691 7.34252
236 3 10.6688 13.5906 5.11761
218 3 5.42794 13.6038 5.22089
253 3 7.96485 10.5576 7.3925
285 3 6.69047 12.8971 7.45391
328 3 9.24544 11.2905 9.41322
305 3 6.58764 11.3839 9.50611
292 3 8.14653 13.6065 9.49817
332 3 10.6411 13.6292 9.36822
54 1 5.59407 11.5003 11.9699
82 2 6.67208 11.2616 11.8985
89 2 8.06312 13.4866 11.6986
10 1 9.13751 13.4381 12.051
43 1 7.56509 12.6786 12.2474
30 1 6.78027 10.4067 12.2746
85 2 10.7216 13.5438 11.7058
119 3 9.31261 15.9881 0.909226
126 3 6.68388 16.0297 0.829405
154 3 6.68973 17.5156 3.02428
171 3 8.00791 15.1843 3.00129
175 3 9.38623 17.569 3.02427
131 3 8.02121 18.197 0.950687
103 3 10.6217 18.298 0.917119
147 3 10.7422 15.2362 3.02896
215 3 9.38507 15.9405 5.20703
222 3 6.72828 15.9413 5.23166
227 3 8.02602 18.3173 5.17364
199 3 10.6887 18.2425 5.3114
266 3 8.02576 15.1531 7.21317
243 3 10.6466 15.2358 7.37722
250 3 6.6485 17.5161 7.40898
271 3 9.31102 17.5287 7.40849
318 3 6.69916 15.9059 9.45716
311 3 9.35807 15.9709 9.46032
323 3 7.96238 18.3311 9.48064
295 3 10.7508 18.3139 9.40777
302 3 5.39438 18.3699 9.43019
52 1 7.82507 18.3789 12.7767
96 2 6.57241 15.8929 11.7838
27 1 7.25299 16.486 12.1106
53 1 6.9213 15.0756 12.3358
91 2 8.4685 17.5316 12.52
51 1 9.20062 17.7193 11.8027
46 1 10.5112 18.2841 13.2187
107 3 12.0664 2.03068 1.03874
127 3 14.8001 2.02931 1.06003
151 3 13.4203 1.15036 3.06475
155 3 14.6367 3.52687 3.03797
183 3 12.0204 3.50544 3.10843
111 3 13.4396 4.33144 1.04303
169 3 15.9767 1.1605 3.11307
129 3 16.0919 4.22553 1.01454
203 3 12.0252 1.94541 5.17276
223 3 14.7657 2.07045 5.31832
207 3 13.4182 4.31956 5.23576
247 3 13.4257 1.20807 7.35565
225 3 16.1318 4.3484 5.22028
267 3 16.1468 1.23172 7.45978
251 3 14.7247 3.55901 7.39385
321 3 15.9767 4.30238 9.61927
279 3 12.0068 3.47912 7.44815
319 3 14.7456 2.11588 9.46258
299 3 12.0126 1.913 9.41875
303 3 13.3763 4.20973 9.50379
29 1 15.2194 2.65398 11.7677
28 1 14.1719 2.28845 13.1611
80 2 15.1861 2.43401 12.7676
24 1 12.0325 1.54755 13.6027
57 1 11.9087 3.6268 12.9148
68 2 12.6783 2.09949 14.0477
7 1 15.6298 0.853171 12.3777
76 2 11.3394 4.13296 12.3518
42 1 11.0537 0.424814 11.7527
67 2 15.8004 0.0139185 11.9589
38 1 12.7307 2.11459 14.9903
115 3 14.7154 6.60283 0.967575
144 3 12.0478 6.70062 0.955124
168 3 12.0122 8.25908 3.06275
187 3 13.3744 5.86854 3.02583
192 3 14.7188 8.17488 3.12358
124 3 13.4305 9.02996 0.92552
98 3 16.1462 8.91192 0.968811
157 3 16.0611 5.86183 3.02434
211 3 14.7201 6.66012 5.16993
240 3 11.9516 6.63115 5.28103
220 3 13.3541 8.97031 5.20838
194 3 16.0457 8.97381 5.25165
255 3 16.0799 5.86708 7.35855
283 3 13.3328 5.7998 7.40085
264 3 11.9965 8.16387 7.49987
289 3 16.0602 9.04705 9.3909
287 3 14.7037 8.21339 7.3942
336 3 12.0389 6.64202 9.5312
307 3 14.7237 6.59886 9.44909
316 3 13.4244 9.0696 9.38637
14 1 14.7765 8.07845 11.9693
48 1 12.7694 6.86964 12.1198
84 2 14.7639 6.84695 11.8509
4 1 15.4598 6.28392 12.2715
44 1 11.6431 5.61913 11.815
88 2 11.9467 6.71262 11.7848
18 1 10.8291 7.89912 11.8345
108 3 12.1053 11.2373 0.929802
128 3 14.7425 11.3141 0.977018
152 3 13.4526 10.552 2.99598
156 3 14.8007 12.8956 3.02634
184 3 12.1275 12.9304 3.04594
112 3 13.3459 13.6137 0.904316
170 3 16.129 10.5102 3.07017
130 3 16.0529 13.6872 0.909779
204 3 12.0421 11.2217 5.20619
224 3 14.8302 11.3014 5.15855
208 3 13.4111 13.6602 5.20751
252 3 14.781 12.8976 7.2414
280 3 12.0602 12.8602 7.30459
268 3 16.0303 10.5119 7.26341
248 3 13.4017 10.4568 7.28592
226 3 16.1171 13.6858 5.26827
300 3 11.9803 11.3609 9.39469
320 3 14.7461 11.44 9.30102
304 3 13.4615 13.6456 9.41037
322 3 16.104 13.73 9.36229
61 1 14.0874 12.8672 11.9546
93 2 13.9691 13.2851 12.8033
75 2 14.2853 10.2128 12.2257
79 2 16.0286 11.6634 14.2834
69 2 11.7482 11.0486 11.7061
35 1 11.0914 9.82115 11.8193
19 1 14.9913 10.8091 12.6263
9 1 11.2915 12.7898 11.9463
22 1 12.6652 10.7169 12.1745
41 1 14.6587 12.9757 13.5711
23 1 14.5306 9.95514 11.2624
63 1 15.8521 11.2398 15.3463
116 3 14.8365 16.0143 0.965377
143 3 12.044 16.1221 0.882485
167 3 12.0946 17.5048 3.06222
188 3 13.4311 15.2406 3.04001
191 3 14.8309 17.5064 2.99436
123 3 13.3853 18.2561 0.909107
97 3 16.0625 18.3685 0.919785
158 3 16.0722 15.1688 3.016
193 3 16.0462 18.2724 5.21021
212 3 14.6988 15.9788 5.21373
239 3 12.0069 15.9299 5.1973
219 3 13.5135 18.2739 5.18472
284 3 13.4118 15.1925 7.35554
256 3 16.1399 15.2686 7.34192
263 3 12.1002 17.5627 7.38413
288 3 14.758 17.4914 7.45655
335 3 12.0586 16.0015 9.45861
308 3 14.7524 15.9343 9.49339
315 3 13.4141 18.3609 9.52462
290 3 16.1433 18.3143 9.56061
15 1 11.7892 16.7564 12.5818
95 2 11.9261 15.8855 12.0156
25 1 12.8691 15.8284 12.1563
49 1 11.282 14.3793 12.0108
59 1 15.0373 15.6041 12.4238
71 2 14.7402 16.3055 11.8955
3 1 15.2914 17.074 12.1735
86 2 11.3472 18.618 12.7223
