ITEM: TIMESTEP
18404000
ITEM: NUMBER OF ATOMS
336
ITEM: BOX BOUNDS pp pp pp
0.0000000000000000e+00 1.6167135238600000e+01
0.0000000000000000e+00 1.8668199539200000e+01
0.0000000000000000e+00 2.5747400283800001e+01
ITEM: ATOMS id type x y z
117 3 1.26252 1.97809 0.943432
141 3 4.01208 1.89899 0.98807
145 3 2.61234 1.2677 3.04993
165 3 4.04499 3.51748 3.07632
173 3 1.25871 3.52125 3.04457
101 3 2.66287 4.25407 1.05679
186 3 5.3214 1.16642 3.07129
121 3 5.317 4.22595 0.962875
213 3 1.28986 2.01075 5.12855
237 3 3.95641 2.01114 5.26847
197 3 2.61208 4.25273 5.05496
217 3 5.23098 4.49552 5.24037
241 3 2.51727 1.26563 7.30865
261 3 3.8765 3.59596 7.34235
282 3 5.33779 1.11992 7.3798
269 3 1.21802 3.59522 7.43468
309 3 1.28949 2.05979 9.49345
333 3 4.05808 2.0151 9.36742
293 3 2.55404 4.37475 9.43998
313 3 5.23188 4.38645 9.43457
58 1 5.02547 1.90841 12.6084
2 1 3.20153 0.521278 12.185
77 2 4.04226 2.06104 12.6087
11 1 3.885 2.96461 12.4177
17 1 0.629858 4.34218 12.9048
26 1 0.649114 0.142718 12.1069
105 3 3.90908 6.59867 0.953845
133 3 1.28142 6.63624 0.876306
161 3 1.28725 8.1671 3.02558
177 3 2.56085 5.88932 2.93957
181 3 4.01243 8.15035 3.01392
137 3 2.61784 8.98262 0.990102
109 3 5.29774 8.97071 0.901203
149 3 5.26592 5.90719 3.03618
201 3 3.99496 6.79768 5.17924
229 3 1.30308 6.63072 5.16599
233 3 2.58371 9.01657 5.16064
277 3 4.05943 8.31329 7.27945
245 3 5.35193 5.83007 7.29429
273 3 2.58436 5.8771 7.2697
257 3 1.34463 8.18756 7.33162
205 3 5.37069 9.01675 5.1335
301 3 5.25085 9.06227 9.50709
297 3 3.9751 6.60445 9.4779
325 3 1.3722 6.65075 9.39331
329 3 2.5694 8.97 9.50941
40 1 5.28189 7.47877 10.6734
73 2 0.92713 5.16805 12.5619
55 1 3.87455 8.38602 11.7175
56 1 3.05682 7.60894 12.6855
92 2 3.50138 8.43412 12.7629
45 1 3.03796 5.5287 13.2068
13 1 3.64254 5.20942 11.7135
78 2 3.79227 5.36285 12.542
32 1 1.18958 4.93002 11.5601
118 3 1.3102 11.277 0.939547
142 3 4.00709 11.404 0.961031
146 3 2.57995 10.5016 2.94371
166 3 3.99717 12.8978 3.03899
174 3 1.244 12.8637 3.00532
102 3 2.62488 13.684 0.935429
122 3 5.33267 13.5972 0.922206
185 3 5.255 10.5916 3.00307
214 3 1.25585 11.3654 5.2276
238 3 3.9265 11.3371 5.16261
198 3 2.66821 13.6958 5.24544
242 3 2.66016 10.5562 7.27455
262 3 4.03528 12.874 7.29606
270 3 1.34656 12.9091 7.31959
281 3 5.35725 10.5936 7.38815
334 3 3.85727 11.3289 9.33962
310 3 1.29049 11.2843 9.43037
294 3 2.59805 13.7427 9.43251
314 3 5.30091 13.8051 9.4505
31 1 0.568003 11.1645 13.9908
5 1 2.46372 9.86898 13.1214
62 1 1.89514 10.4205 11.8991
1 1 4.04817 12.6839 11.4529
65 2 4.24878 12.378 12.3753
34 1 2.05387 13.7076 13.463
94 2 1.91118 10.6207 12.6949
16 1 3.48538 11.9108 12.7076
50 1 1.8392 13.9249 11.6209
106 3 4.0359 15.9915 0.954079
134 3 1.25512 16.0475 0.96881
162 3 1.20625 17.6068 3.04023
178 3 2.5732 15.2398 2.94782
182 3 3.94608 17.6073 3.09012
138 3 2.68229 18.31 0.944854
110 3 5.36483 18.3006 0.983618
246 3 5.36205 15.1347 7.32892
202 3 3.99604 15.9804 5.14357
230 3 1.3418 16.0092 5.23492
234 3 2.64746 18.3232 5.20383
206 3 5.3438 18.2206 5.20594
274 3 2.59071 15.2119 7.33474
302 3 5.33859 18.3743 9.44608
258 3 1.26124 17.5774 7.42885
278 3 3.92545 17.5451 7.45417
326 3 1.18981 16.0208 9.40907
298 3 3.90779 15.9083 9.48222
330 3 2.61922 18.3191 9.5682
6 1 3.15835 15.3274 12.1273
36 1 3.15408 17.6908 12.2996
70 2 3.93122 16.0594 11.8142
66 2 2.63825 18.4855 11.9214
64 1 4.91742 15.9635 11.7515
90 2 1.86708 14.4776 12.6819
114 3 6.65413 1.93521 0.966269
135 3 9.30701 2.02978 0.954618
159 3 8.02158 1.19561 3.02059
163 3 9.31182 3.51045 3.14301
189 3 6.60055 3.42246 3.10485
100 3 8.04499 4.32525 1.00342
139 3 10.6712 4.21939 1.00926
179 3 10.6575 1.20635 2.9681
235 3 10.684 4.28155 5.19566
210 3 6.66691 1.93674 5.24272
231 3 9.38844 1.98386 5.22696
196 3 7.98722 4.27793 5.20069
254 3 7.96551 1.20656 7.30389
331 3 10.5808 4.39905 9.45251
286 3 6.61397 3.47693 7.37373
259 3 9.37848 3.54255 7.42728
291 3 7.97881 4.31099 9.47092
306 3 6.72187 2.02884 9.48283
327 3 9.35465 1.99547 9.54073
275 3 10.7233 1.23525 7.36368
47 1 7.88761 4.28727 12.9488
83 2 8.50421 3.49813 12.8562
33 1 6.96682 1.43945 11.8215
37 1 7.65973 2.13489 13.1393
20 1 10.3924 4.25162 12.6115
81 2 6.95735 1.19791 12.8588
39 1 8.64296 3.41905 11.9017
120 3 9.29091 6.62774 0.919778
125 3 6.69865 6.5978 0.947234
153 3 6.75665 8.22541 3.0026
172 3 7.93605 5.81074 3.0565
176 3 9.39737 8.22119 3.09178
132 3 7.94857 9.03213 0.907428
148 3 10.7099 5.84625 3.02926
104 3 10.7084 9.08656 1.01565
200 3 10.7462 9.00125 5.2779
216 3 9.3012 6.59721 5.1595
221 3 6.6829 6.74082 5.26983
228 3 7.99034 9.01094 5.31625
272 3 9.33256 8.15087 7.34646
249 3 6.66129 8.22458 7.35267
244 3 10.6513 5.89928 7.34079
296 3 10.549 9.0033 9.51498
265 3 8.03488 5.77437 7.42133
312 3 9.29325 6.69575 9.44881
317 3 6.61096 6.70869 9.40402
324 3 7.88695 8.98103 9.48617
74 2 10.4896 8.8872 11.7221
8 1 9.00625 8.72895 11.7007
87 2 7.90455 8.93305 11.6461
60 1 7.7798 8.01828 11.6847
21 1 5.69426 6.0994 12.6111
12 1 6.68061 5.8031 11.5205
72 2 6.69001 5.92615 12.5463
113 3 6.62729 11.385 0.877488
136 3 9.33212 11.4102 0.956309
160 3 8.02608 10.4875 3.07345
164 3 9.40001 12.9126 3.00951
190 3 6.69803 12.8653 2.98908
99 3 7.99147 13.638 0.886446
140 3 10.7251 13.6591 0.90516
180 3 10.7011 10.5884 3.09358
209 3 6.61631 11.2846 5.22412
232 3 9.36272 11.3384 5.20426
195 3 8.03819 13.5539 5.15284
260 3 9.28306 12.7806 7.33272
276 3 10.6877 10.5986 7.32254
236 3 10.6993 13.5926 5.10136
218 3 5.42005 13.6254 5.19506
253 3 7.96056 10.5615 7.39216
285 3 6.66886 12.9049 7.40746
305 3 6.58618 11.3975 9.50397
328 3 9.25162 11.296 9.4202
292 3 8.15104 13.6036 9.51477
332 3 10.6695 13.6345 9.34814
43 1 7.40077 12.8615 12.1366
85 2 10.6889 13.5477 11.6778
89 2 8.0774 13.4655 11.6552
30 1 6.84921 10.2601 12.3421
10 1 9.0245 13.4615 11.9963
82 2 6.61814 11.2456 11.9346
54 1 5.53597 11.4143 12.4157
119 3 9.30924 15.9825 0.9017
126 3 6.69056 16.0258 0.831066
154 3 6.69883 17.4922 3.01428
171 3 8.02352 15.194 2.99588
175 3 9.36235 17.5361 3.0149
131 3 8.02039 18.2304 0.947442
103 3 10.6249 18.256 0.919759
147 3 10.7539 15.2448 3.00032
150 3 5.3917 15.2144 3.00607
199 3 10.6909 18.2336 5.31993
227 3 8.04349 18.3259 5.17606
215 3 9.36267 15.9326 5.19756
222 3 6.74069 15.9053 5.21883
266 3 8.0523 15.1518 7.21273
271 3 9.29491 17.5231 7.40633
250 3 6.65171 17.5162 7.43668
243 3 10.6366 15.2393 7.35742
311 3 9.35532 15.9731 9.46161
318 3 6.70062 15.9086 9.43287
323 3 7.94006 18.3209 9.48179
295 3 10.7552 18.3145 9.41332
51 1 9.11572 17.227 11.7565
46 1 10.3882 18.3804 13.0942
53 1 6.99042 14.9443 12.1988
96 2 6.56575 15.9127 11.8344
91 2 8.53727 17.5993 12.5298
27 1 7.2473 16.6233 12.1204
52 1 8.08191 18.5261 12.6663
107 3 12.0518 2.01039 0.996739
127 3 14.7894 2.044 1.05282
151 3 13.4245 1.15861 3.06404
155 3 14.6306 3.50741 3.06114
183 3 12.0492 3.52065 3.12493
111 3 13.4299 4.33942 1.06874
129 3 16.0991 4.23857 1.0136
169 3 15.9973 1.16382 3.11795
225 3 16.1108 4.36684 5.21408
203 3 12.0189 1.93171 5.17206
223 3 14.7931 2.04318 5.29682
207 3 13.393 4.28612 5.27266
267 3 16.1341 1.23964 7.43438
321 3 15.9926 4.30785 9.62623
279 3 12.0101 3.45537 7.43931
251 3 14.7103 3.57885 7.35869
247 3 13.4214 1.2127 7.36507
299 3 12.0343 1.91566 9.45189
319 3 14.7299 2.11654 9.48943
303 3 13.3705 4.21399 9.50655
24 1 12.0718 1.42802 13.8258
7 1 15.6313 0.871684 12.0677
68 2 12.7007 2.14124 14.116
29 1 14.9085 2.84818 11.8055
80 2 15.1035 2.42089 12.7694
28 1 14.3273 1.97408 13.1888
57 1 11.6313 3.74324 13.1769
76 2 11.2948 4.09177 12.3673
42 1 11.0523 0.299012 11.9028
38 1 12.6881 2.01508 15.0926
115 3 14.7219 6.57556 0.97017
144 3 12.0229 6.71836 0.964079
168 3 12.0037 8.25922 3.02696
187 3 13.3759 5.86958 3.02871
192 3 14.7145 8.18659 3.10367
124 3 13.4394 9.0366 0.943157
157 3 16.0728 5.83097 3.0459
98 3 16.1589 8.88688 1.00231
211 3 14.7344 6.64651 5.17009
240 3 11.9464 6.64194 5.2632
220 3 13.368 8.98352 5.21576
194 3 16.0559 8.95429 5.22473
255 3 16.0745 5.88678 7.37479
283 3 13.3319 5.80861 7.4325
289 3 16.0575 9.05483 9.38017
264 3 11.9903 8.17199 7.50217
287 3 14.6949 8.21035 7.38625
336 3 12.025 6.64232 9.52348
307 3 14.743 6.62675 9.46179
316 3 13.417 9.0436 9.39402
84 2 14.7559 6.85917 11.8638
14 1 14.862 7.86225 12.007
44 1 11.5503 5.73392 11.986
4 1 15.5167 6.38997 12.2416
88 2 11.8852 6.72393 11.751
48 1 12.7434 6.77306 12.0211
18 1 10.9603 7.92619 11.7916
108 3 12.1112 11.2769 0.887338
128 3 14.7806 11.3278 0.998655
152 3 13.4241 10.5477 3.03309
156 3 14.814 12.9065 3.03088
184 3 12.1353 12.9252 2.99795
112 3 13.3455 13.5933 0.910928
170 3 16.1162 10.5315 3.07839
130 3 16.0513 13.6534 0.888356
204 3 12.0436 11.2364 5.20445
224 3 14.7672 11.3226 5.1626
208 3 13.4216 13.6339 5.19512
252 3 14.8092 12.9083 7.22803
280 3 12.0539 12.8734 7.30324
268 3 16.0473 10.5028 7.27747
248 3 13.4045 10.4886 7.32335
226 3 16.1459 13.6804 5.27293
300 3 11.9693 11.3676 9.41972
320 3 14.7567 11.4183 9.28602
304 3 13.4727 13.6277 9.39227
322 3 16.1156 13.723 9.38328
61 1 14.1081 12.9748 11.8279
79 2 15.9927 11.687 14.2925
93 2 14.0328 13.3289 12.8227
35 1 11.0965 10.1774 11.8437
69 2 11.7586 11.0751 11.7719
41 1 14.6594 12.7857 13.4156
9 1 11.4477 12.8784 11.865
22 1 12.7588 10.7302 11.9903
19 1 14.9933 10.9095 12.6219
75 2 14.2905 10.2291 12.2761
23 1 14.7481 9.89532 11.4194
63 1 15.9724 11.517 15.2617
116 3 14.8299 15.9995 0.948333
143 3 12.0566 16.114 0.888859
167 3 12.0813 17.5432 3.09487
188 3 13.4237 15.2368 3.0668
191 3 14.825 17.5047 2.99232
123 3 13.4074 18.2286 0.883362
97 3 16.0639 18.3818 0.920759
158 3 16.0821 15.1541 3.03674
193 3 16.0365 18.2681 5.19901
212 3 14.7266 15.9779 5.22111
239 3 12.0034 15.9275 5.1868
219 3 13.5293 18.2739 5.16981
256 3 16.1276 15.2565 7.33519
284 3 13.4261 15.227 7.36685
288 3 14.7425 17.5007 7.48394
263 3 12.0769 17.5735 7.40158
308 3 14.754 15.9599 9.47089
335 3 12.0628 15.9991 9.46341
315 3 13.4215 18.376 9.50488
290 3 16.1338 18.318 9.57034
15 1 11.5471 16.7131 12.4011
71 2 14.7194 16.2988 11.8523
95 2 11.9533 15.8098 12.0667
3 1 15.1615 17.0922 12.1423
49 1 11.1653 14.3637 12.1242
25 1 12.8791 15.6484 12.5622
59 1 15.0283 15.4566 12.5175
67 2 15.8632 18.6472 11.9981
86 2 11.3109 18.6546 12.7681
