ITEM: TIMESTEP
18404000
ITEM: NUMBER OF ATOMS
336
ITEM: BOX BOUNDS pp pp pp
0.0000000000000000e+00 1.6167135238600000e+01
0.0000000000000000e+00 1.8668199539200000e+01
0.0000000000000000e+00 2.5747400283800001e+01
ITEM: ATOMS id type x y z
117 3 1.26542 1.96078 0.924224
141 3 4.00437 1.89619 1.01086
145 3 2.61977 1.2668 3.04075
165 3 4.01649 3.5363 3.05033
173 3 1.24898 3.52369 3.03109
101 3 2.65158 4.26461 1.05409
186 3 5.36462 1.17693 3.0747
121 3 5.33331 4.23846 0.959775
217 3 5.24606 4.49352 5.2394
213 3 1.28658 2.00734 5.12315
237 3 3.96828 2.00119 5.27058
197 3 2.59735 4.24474 5.03482
241 3 2.51339 1.2418 7.31625
282 3 5.3474 1.10825 7.36541
261 3 3.86965 3.59563 7.36609
269 3 1.21833 3.55985 7.42464
309 3 1.28238 2.03828 9.46797
333 3 4.07461 2.03159 9.38073
293 3 2.54984 4.39362 9.42824
313 3 5.24646 4.38601 9.4364
11 1 4.07638 2.99937 12.6446
77 2 4.06826 2.11756 12.6141
2 1 3.20701 0.766856 12.1515
58 1 4.83064 1.68693 12.2367
17 1 0.496204 4.31034 12.7673
26 1 0.854336 0.0947373 12.0202
105 3 3.92503 6.59958 0.923465
133 3 1.27168 6.63549 0.870564
161 3 1.27913 8.17286 3.03823
177 3 2.58049 5.87275 2.95642
181 3 4.00898 8.16732 3.00629
137 3 2.61357 8.97358 0.994638
109 3 5.29262 8.97335 0.888702
149 3 5.25064 5.93013 3.04904
98 3 0.00420836 8.86466 0.978832
205 3 5.36917 9.03156 5.11084
245 3 5.3417 5.84051 7.31573
201 3 4.00204 6.76578 5.17984
229 3 1.30534 6.63251 5.15727
233 3 2.5589 9.01042 5.14185
277 3 4.02838 8.31558 7.28789
257 3 1.33246 8.1908 7.32996
273 3 2.5962 5.88409 7.2832
301 3 5.26765 9.07206 9.50211
325 3 1.36481 6.64231 9.3919
297 3 3.95747 6.62809 9.45407
329 3 2.57058 8.98932 9.50208
40 1 5.12119 7.25163 10.3389
55 1 3.56521 8.6134 11.7292
92 2 3.45411 8.42316 12.7983
78 2 3.77416 5.3046 12.496
45 1 2.95575 5.21003 13.1864
13 1 3.55222 5.2209 11.4265
56 1 2.94333 7.42711 12.5427
32 1 1.03113 5.19995 11.5518
73 2 0.941816 5.14056 12.5657
118 3 1.31422 11.2839 0.95471
142 3 3.99767 11.4207 0.935216
146 3 2.56298 10.5114 2.95505
166 3 4.00087 12.8926 3.02251
174 3 1.26663 12.8789 3.02087
102 3 2.63203 13.6516 0.947848
122 3 5.29144 13.5991 0.893886
185 3 5.24894 10.5824 2.99082
214 3 1.26009 11.3694 5.23417
238 3 3.91451 11.3467 5.15914
198 3 2.68926 13.6817 5.23385
242 3 2.67073 10.5613 7.2854
262 3 4.03658 12.8713 7.30609
270 3 1.34818 12.9272 7.33861
334 3 3.83979 11.3431 9.34525
310 3 1.28494 11.2852 9.45726
294 3 2.56221 13.7399 9.42995
314 3 5.29554 13.8045 9.44287
281 3 5.34745 10.5983 7.39257
50 1 1.82676 13.9928 11.7345
31 1 0.682566 11.3159 14.0608
5 1 2.46246 9.73388 12.907
16 1 3.37602 11.7787 12.5784
65 2 4.32306 12.36 12.4378
94 2 1.78857 10.6542 12.6934
1 1 3.94795 12.5994 11.5389
62 1 1.79582 10.3439 11.6155
34 1 2.14328 13.7882 13.3709
106 3 4.05706 15.9978 0.97828
134 3 1.20268 16.0417 0.985298
162 3 1.21666 17.6163 3.05945
178 3 2.581 15.221 2.94992
182 3 3.96791 17.6243 3.04825
138 3 2.66383 18.3188 0.951784
110 3 5.37502 18.3211 0.96539
150 3 5.37937 15.2206 3.00467
246 3 5.35661 15.1487 7.35002
202 3 3.98397 15.9795 5.13898
230 3 1.32585 16.0226 5.25181
234 3 2.64948 18.3063 5.2107
206 3 5.36881 18.2281 5.17526
274 3 2.57783 15.1972 7.34877
258 3 1.24627 17.5778 7.45359
278 3 3.89494 17.5464 7.48655
326 3 1.19822 16.0072 9.39598
298 3 3.91975 15.9086 9.50239
330 3 2.60436 18.3149 9.55901
302 3 5.31547 18.4056 9.44009
90 2 1.91407 14.4675 12.6874
36 1 3.11841 17.8606 12.574
6 1 3.13824 15.454 12.2234
64 1 4.79182 15.9437 11.9528
70 2 3.93782 16.0646 11.82
66 2 2.60878 18.525 11.9291
114 3 6.64358 1.93713 0.933209
135 3 9.30867 2.0468 0.969585
159 3 8.01911 1.18866 3.02332
163 3 9.29172 3.51609 3.11285
189 3 6.59618 3.43326 3.07649
100 3 8.06005 4.35279 0.999974
139 3 10.6776 4.20699 1.00883
179 3 10.7012 1.21561 2.97368
235 3 10.6755 4.28621 5.22447
210 3 6.65889 1.95192 5.23927
231 3 9.38195 1.97032 5.25301
196 3 7.97616 4.29042 5.22629
254 3 7.9684 1.20797 7.30275
331 3 10.5749 4.385 9.47502
286 3 6.62255 3.4761 7.3861
259 3 9.35127 3.5381 7.43016
275 3 10.7259 1.22797 7.37738
306 3 6.72096 2.0422 9.47102
291 3 7.96643 4.31574 9.48438
327 3 9.34909 2.00194 9.53568
47 1 8.02912 4.3852 12.8764
20 1 10.4196 4.19795 12.6865
81 2 6.97621 1.15203 12.7933
39 1 8.63337 3.30559 11.8825
83 2 8.48706 3.542 12.8087
37 1 7.49201 1.92782 12.8944
33 1 6.9073 1.22956 11.768
120 3 9.28448 6.61864 0.913629
125 3 6.67515 6.59406 0.956
153 3 6.75851 8.23973 3.01637
172 3 7.94704 5.82159 3.046
176 3 9.38672 8.24969 3.09975
132 3 7.99061 9.01201 0.885971
148 3 10.7038 5.84672 3.03508
104 3 10.6935 9.05529 1.03856
216 3 9.29193 6.6137 5.16896
221 3 6.69246 6.72579 5.28521
228 3 8.00394 8.99358 5.30437
200 3 10.7472 8.98865 5.27785
244 3 10.6336 5.91431 7.32402
296 3 10.5507 8.99019 9.50366
265 3 8.03213 5.7682 7.41773
249 3 6.66964 8.21996 7.38492
272 3 9.3391 8.15708 7.35772
317 3 6.61003 6.70719 9.40225
312 3 9.27414 6.70565 9.43681
324 3 7.88875 8.99674 9.49868
8 1 9.03798 8.70484 11.7551
74 2 10.4638 8.85977 11.7878
12 1 6.65753 5.68694 11.4423
21 1 5.74287 6.17104 12.5077
60 1 7.58348 8.06114 12.0182
87 2 7.94074 8.94242 11.6501
72 2 6.66064 5.93335 12.5513
113 3 6.64469 11.3788 0.910794
136 3 9.37466 11.4097 0.954751
160 3 8.05334 10.4962 3.05634
164 3 9.39181 12.9066 2.98895
190 3 6.69527 12.8565 2.99479
99 3 8.01392 13.6463 0.913846
140 3 10.7425 13.6527 0.909828
180 3 10.7228 10.5832 3.08983
276 3 10.7007 10.577 7.34372
209 3 6.62699 11.2894 5.23059
232 3 9.37717 11.3429 5.20611
195 3 8.0477 13.5735 5.15205
260 3 9.31173 12.786 7.32963
236 3 10.6739 13.6058 5.111
218 3 5.44239 13.6236 5.18862
253 3 7.95677 10.5436 7.39124
285 3 6.69114 12.9018 7.41643
305 3 6.59108 11.4037 9.4966
328 3 9.23886 11.3035 9.43119
292 3 8.13435 13.6189 9.51536
332 3 10.6669 13.6306 9.378
85 2 10.7324 13.5863 11.6167
82 2 6.6127 11.2618 11.9253
30 1 6.58648 10.2583 12.3438
10 1 9.12646 13.4325 11.9334
89 2 8.12294 13.513 11.6809
54 1 5.66798 11.3635 12.3054
43 1 7.50378 12.6957 11.8797
119 3 9.31453 15.9679 0.921291
126 3 6.69832 16.0394 0.831491
154 3 6.7052 17.5251 3.01537
171 3 8.04221 15.1714 3.0039
175 3 9.37122 17.5326 3.02263
131 3 8.02449 18.2263 0.919761
103 3 10.6639 18.2729 0.922435
147 3 10.7398 15.2276 3.02788
199 3 10.6971 18.2217 5.30531
215 3 9.40149 15.9413 5.22555
222 3 6.74911 15.9112 5.21351
227 3 8.03767 18.3125 5.17415
266 3 8.01876 15.1209 7.2336
243 3 10.6352 15.2403 7.37162
271 3 9.2908 17.5325 7.38629
250 3 6.64836 17.4967 7.38934
311 3 9.36871 15.9745 9.47789
318 3 6.71553 15.9251 9.44597
323 3 7.96561 18.3071 9.47649
295 3 10.7508 18.3104 9.40023
52 1 7.97548 18.6344 12.6674
91 2 8.55907 17.5403 12.5718
51 1 9.05203 17.5474 11.7427
96 2 6.57562 15.8803 11.8145
27 1 7.33529 16.4825 12.1977
53 1 6.88589 14.8273 11.9901
46 1 10.4371 18.3949 13.0059
107 3 12.0383 2.00591 1.00977
127 3 14.7927 2.0362 1.06558
151 3 13.4225 1.14583 3.05226
155 3 14.6434 3.52167 3.07982
183 3 12.0245 3.51372 3.11838
111 3 13.4409 4.31013 1.06364
129 3 16.1153 4.21266 0.999317
169 3 16.0075 1.1526 3.10903
203 3 12.0219 1.93277 5.19172
223 3 14.7843 2.04435 5.30577
207 3 13.406 4.28658 5.23346
247 3 13.4249 1.21548 7.35404
225 3 16.1055 4.35134 5.23441
267 3 16.137 1.2459 7.42481
279 3 12.0019 3.46496 7.43083
251 3 14.6926 3.56707 7.40533
299 3 12.0246 1.92539 9.44813
319 3 14.7361 2.10361 9.49256
303 3 13.3826 4.21842 9.51456
321 3 15.9775 4.30679 9.63017
28 1 14.2219 2.06702 13.0325
57 1 11.8879 3.56708 12.8645
42 1 11.2803 0.283148 11.7738
68 2 12.6582 2.17958 14.0576
24 1 11.9516 1.50874 13.836
7 1 15.4882 1.00764 12.2787
80 2 15.1309 2.37859 12.8104
29 1 14.8885 2.8123 11.9212
76 2 11.2553 4.131 12.3902
38 1 12.6771 2.02613 14.8394
115 3 14.7363 6.57823 0.954768
144 3 12.0289 6.73706 0.977217
168 3 12.0153 8.2441 3.02544
187 3 13.3802 5.86824 3.03753
192 3 14.7325 8.17051 3.09483
124 3 13.4374 9.02035 0.925969
157 3 16.0551 5.84189 3.06526
211 3 14.6962 6.65566 5.19734
240 3 11.9723 6.64745 5.23961
220 3 13.3758 9.01623 5.225
194 3 16.0469 8.9659 5.24564
283 3 13.3203 5.82146 7.43143
255 3 16.0696 5.89528 7.36144
289 3 16.0479 9.04815 9.36902
264 3 12.0144 8.13916 7.48978
287 3 14.6675 8.19717 7.36388
307 3 14.7241 6.62445 9.45517
336 3 12.0244 6.65087 9.51257
316 3 13.429 9.03549 9.37877
18 1 11.222 8.19074 11.814
44 1 11.6646 5.87037 11.9666
4 1 15.6066 6.39487 12.2889
84 2 14.7322 6.82411 11.9006
14 1 14.9311 7.80123 12.1962
88 2 11.8784 6.73331 11.7151
48 1 12.765 6.81883 11.9086
108 3 12.1153 11.2701 0.871112
128 3 14.7826 11.2966 0.990023
152 3 13.4205 10.5572 3.01319
156 3 14.8072 12.8803 3.0654
184 3 12.1179 12.9197 3.01971
112 3 13.3665 13.6034 0.910127
170 3 16.1172 10.5318 3.05172
130 3 16.0499 13.6584 0.898706
204 3 12.0622 11.2549 5.19598
224 3 14.7824 11.323 5.17165
208 3 13.4356 13.6415 5.21794
252 3 14.7725 12.9136 7.25053
280 3 12.0718 12.8682 7.31912
226 3 16.1323 13.6833 5.27088
248 3 13.3625 10.4616 7.30183
268 3 16.0494 10.5286 7.27749
320 3 14.7611 11.4543 9.3043
300 3 11.9857 11.3593 9.40685
304 3 13.4937 13.6251 9.41143
322 3 16.1387 13.745 9.38595
9 1 11.3655 12.7484 11.6107
75 2 14.3681 10.1571 12.2089
41 1 14.653 12.8462 13.4421
69 2 11.7623 11.0608 11.7548
19 1 14.9696 10.9752 12.6804
35 1 10.9134 10.1912 11.6745
79 2 16.0154 11.6908 14.2716
22 1 12.8556 10.8003 11.8624
93 2 13.9619 13.321 12.8535
61 1 14.0689 12.9244 12.01
23 1 14.8713 10.0275 11.4071
63 1 15.7137 11.3623 15.2203
116 3 14.8138 16.0297 0.961304
143 3 12.0591 16.1132 0.891772
167 3 12.0776 17.5309 3.07796
188 3 13.4405 15.2425 3.07562
191 3 14.8155 17.5166 2.98652
123 3 13.4253 18.2559 0.902268
97 3 16.0777 18.3964 0.918652
158 3 16.0455 15.1776 3.04394
193 3 16.0446 18.306 5.22719
212 3 14.7487 15.9713 5.19857
239 3 11.9927 15.9288 5.20539
219 3 13.5195 18.2593 5.17461
256 3 16.1201 15.2437 7.32425
284 3 13.4366 15.1865 7.3772
288 3 14.7391 17.4985 7.46737
263 3 12.065 17.5815 7.39933
308 3 14.7476 15.9258 9.47299
335 3 12.0441 16.0155 9.44899
315 3 13.4191 18.3761 9.50133
290 3 16.1268 18.3336 9.56242
71 2 14.7117 16.2455 11.8231
49 1 11.0491 14.5414 11.8411
67 2 15.8596 18.6555 11.9525
95 2 11.9584 15.8405 12.0394
15 1 11.5484 16.7731 12.4121
59 1 15.1371 15.5013 12.1838
3 1 15.1464 17.1357 12.0952
25 1 12.9961 15.6945 12.3317
86 2 11.3681 18.6358 12.7924
