ITEM: TIMESTEP
18404000
ITEM: NUMBER OF ATOMS
336
ITEM: BOX BOUNDS pp pp pp
0.0000000000000000e+00 1.6167135238600000e+01
0.0000000000000000e+00 1.8668199539200000e+01
0.0000000000000000e+00 2.5747400283800001e+01
ITEM: ATOMS id type x y z
117 3 1.23963 1.97036 0.935821
141 3 3.99112 1.89995 0.999897
145 3 2.61087 1.29342 3.02066
165 3 4.02086 3.54763 3.05093
173 3 1.23152 3.53466 3.05007
101 3 2.65332 4.27029 1.03925
186 3 5.35957 1.16834 3.06654
121 3 5.3226 4.26193 0.958672
213 3 1.26698 2.03674 5.15739
237 3 3.94101 2.00416 5.25927
197 3 2.60024 4.23317 5.06171
217 3 5.23068 4.47434 5.21735
241 3 2.51658 1.24894 7.32517
282 3 5.3269 1.12228 7.39751
261 3 3.8302 3.60237 7.37678
269 3 1.20985 3.56264 7.42333
333 3 4.04697 2.05873 9.38665
309 3 1.28346 2.0534 9.48685
293 3 2.55492 4.36862 9.41581
313 3 5.24775 4.37226 9.41948
11 1 4.00357 3.04266 12.5522
77 2 4.04773 2.01006 12.6056
2 1 3.09464 0.638208 12.3014
58 1 5.1187 1.55487 12.5025
17 1 0.2885 4.48716 12.5437
26 1 0.712003 0.14593 11.9013
105 3 3.89209 6.62626 0.942803
133 3 1.27725 6.65895 0.873678
161 3 1.25154 8.19483 3.04624
177 3 2.59671 5.90096 2.97596
181 3 3.99509 8.14511 3.04572
137 3 2.64019 8.98512 1.00239
109 3 5.29272 8.9668 0.898478
149 3 5.27329 5.90858 3.04397
98 3 0.00595222 8.90995 0.995738
201 3 3.9939 6.78765 5.18503
229 3 1.29853 6.61048 5.2189
233 3 2.58173 9.03525 5.13139
277 3 4.03612 8.3261 7.29746
273 3 2.59599 5.88326 7.25849
257 3 1.34606 8.16261 7.31813
245 3 5.31945 5.84749 7.31328
205 3 5.36644 9.02044 5.1237
329 3 2.56914 8.95586 9.51524
297 3 3.971 6.6412 9.46664
325 3 1.37826 6.65605 9.39679
301 3 5.26861 9.0275 9.52377
40 1 5.25762 7.69084 10.4752
92 2 3.43084 8.40843 12.7889
13 1 3.54895 5.17765 11.6345
78 2 3.8304 5.34921 12.5418
56 1 3.20094 7.59353 13.0649
45 1 3.03244 5.40174 13.0069
55 1 3.32227 8.31322 11.8034
32 1 1.41288 5.09875 11.3308
73 2 0.930583 5.20972 12.5434
118 3 1.31682 11.2773 0.939813
142 3 3.97806 11.4015 0.945116
146 3 2.57702 10.508 2.93865
166 3 4.00517 12.9071 3.04924
174 3 1.26888 12.8351 3.00712
102 3 2.64339 13.6354 0.95629
122 3 5.31786 13.6074 0.9597
185 3 5.26289 10.5414 3.01115
214 3 1.27247 11.3742 5.24282
238 3 3.92639 11.3464 5.16869
198 3 2.70027 13.6634 5.23808
242 3 2.65072 10.5528 7.26521
262 3 4.02714 12.8914 7.29668
270 3 1.34997 12.9199 7.34221
310 3 1.26757 11.3124 9.4418
334 3 3.83489 11.299 9.34858
294 3 2.58357 13.7424 9.43368
314 3 5.31054 13.768 9.46986
281 3 5.34265 10.6033 7.41607
16 1 3.62537 11.6003 12.5913
5 1 2.49872 9.88746 13.0603
94 2 1.74515 10.5082 12.6901
31 1 0.626635 11.2362 13.7755
65 2 4.2661 12.3388 12.4575
62 1 1.66892 10.4753 11.7484
34 1 2.0973 13.7746 13.3952
1 1 4.1006 12.5627 11.524
106 3 4.03785 16.0057 0.968943
134 3 1.23073 16.0445 0.988007
162 3 1.21477 17.6304 3.05717
178 3 2.56234 15.2161 2.96915
182 3 3.94426 17.5953 3.07324
138 3 2.63544 18.3266 0.909126
110 3 5.3642 18.3006 1.00311
202 3 3.99041 15.9723 5.13418
230 3 1.36141 16.0089 5.21745
234 3 2.64497 18.3216 5.16808
206 3 5.3624 18.2457 5.19927
274 3 2.5885 15.2166 7.3412
258 3 1.25222 17.5799 7.43985
278 3 3.90361 17.5395 7.49901
298 3 3.92727 15.9199 9.49051
326 3 1.20746 16.0243 9.40958
330 3 2.59135 18.3349 9.54153
246 3 5.34281 15.1526 7.37675
64 1 4.93697 16.113 11.8914
90 2 1.85062 14.5233 12.6376
6 1 3.51337 15.3964 12.1952
36 1 3.14276 17.8103 11.96
66 2 2.59499 18.6331 11.8319
70 2 3.99223 16.1105 11.8179
50 1 1.61613 14.1295 11.746
114 3 6.66335 1.92997 0.917279
135 3 9.3111 2.02829 0.953256
159 3 8.00236 1.19085 3.01304
163 3 9.31562 3.48532 3.14836
189 3 6.5874 3.42347 3.10734
100 3 8.05945 4.36361 1.00178
179 3 10.6726 1.20709 2.97161
139 3 10.6763 4.19474 1.00176
210 3 6.64544 1.93361 5.23764
231 3 9.40726 1.97224 5.25544
196 3 8.0224 4.27288 5.21418
286 3 6.60749 3.47217 7.33375
254 3 8.01327 1.21624 7.31871
275 3 10.7116 1.24063 7.34868
235 3 10.692 4.29642 5.23354
331 3 10.5823 4.38724 9.4696
259 3 9.3463 3.5035 7.43787
306 3 6.71316 2.00673 9.46042
327 3 9.37706 1.99302 9.54629
291 3 8.00309 4.32411 9.47721
81 2 6.88842 1.19325 12.7646
33 1 7.21394 1.26686 11.9399
37 1 7.18858 2.13259 13.0574
20 1 10.3817 3.88171 12.5854
83 2 8.47656 3.53304 12.7876
39 1 8.74913 3.22791 11.7183
47 1 7.84499 4.35559 13.0403
120 3 9.27731 6.60848 0.909996
125 3 6.65055 6.59713 0.957036
153 3 6.77531 8.21953 3.03428
172 3 7.95087 5.81947 3.0778
176 3 9.38938 8.21425 3.08244
132 3 7.98192 9.03397 0.876164
148 3 10.7502 5.84812 3.04977
104 3 10.7098 9.08956 1.0237
216 3 9.2976 6.61812 5.20708
221 3 6.66266 6.73571 5.25192
228 3 7.98605 8.98528 5.31136
200 3 10.733 8.99429 5.26599
272 3 9.37682 8.14651 7.33602
296 3 10.5394 8.98547 9.48708
265 3 8.03506 5.76565 7.3913
249 3 6.65953 8.22454 7.36716
312 3 9.27786 6.69652 9.43825
317 3 6.60639 6.69492 9.37545
324 3 7.90282 9.02345 9.47963
244 3 10.6185 5.87867 7.37488
12 1 6.75936 5.6219 11.5885
60 1 7.50299 8.30187 12.0136
74 2 10.463 8.8908 11.7707
21 1 5.56067 6.19254 12.6882
8 1 9.26876 8.82547 11.6644
87 2 7.95361 8.89268 11.6179
72 2 6.62998 5.98131 12.5901
113 3 6.62031 11.3849 0.878722
136 3 9.37486 11.4129 0.986135
160 3 8.04585 10.512 3.081
164 3 9.39456 12.9063 2.98615
190 3 6.65721 12.907 3.00403
99 3 8.00427 13.6513 0.874606
140 3 10.6928 13.685 0.899979
180 3 10.7149 10.5768 3.09704
209 3 6.62987 11.3014 5.22134
232 3 9.35934 11.3615 5.1826
195 3 8.05039 13.5869 5.14441
260 3 9.27245 12.7639 7.33975
236 3 10.6771 13.6179 5.12031
276 3 10.7311 10.556 7.34604
218 3 5.43081 13.6038 5.224
253 3 7.95205 10.5607 7.38896
285 3 6.68561 12.8949 7.44174
328 3 9.25338 11.2904 9.41745
305 3 6.59071 11.3785 9.51321
292 3 8.16052 13.6018 9.49025
332 3 10.641 13.6097 9.37177
43 1 7.46581 12.614 12.0806
10 1 9.02832 13.3274 11.9783
82 2 6.58287 11.2636 11.833
30 1 6.62097 10.2339 12.1892
54 1 5.5366 11.4807 12.0099
89 2 8.06553 13.4657 11.6644
85 2 10.7342 13.5615 11.7086
119 3 9.32066 15.9807 0.91805
126 3 6.68359 16.0341 0.845934
154 3 6.70146 17.5068 3.01872
171 3 8.02089 15.1897 2.99685
175 3 9.35612 17.5753 3.0076
131 3 8.02125 18.1835 0.934231
103 3 10.6307 18.2875 0.915969
147 3 10.7268 15.2394 3.02625
150 3 5.40127 15.2202 3.0213
199 3 10.6828 18.2403 5.28079
215 3 9.39595 15.9792 5.20589
222 3 6.75219 15.9504 5.22167
227 3 8.0352 18.329 5.19078
266 3 8.01679 15.151 7.21747
243 3 10.6523 15.2132 7.36204
250 3 6.63633 17.51 7.40471
271 3 9.29813 17.5083 7.41041
311 3 9.37103 15.9526 9.46623
318 3 6.67935 15.8987 9.48154
323 3 7.95751 18.3058 9.45895
295 3 10.7136 18.3345 9.39778
302 3 5.38944 18.3899 9.42301
46 1 10.3931 18.2509 13.1699
53 1 6.77682 15.1091 12.2806
52 1 7.94167 18.4354 12.562
27 1 7.30673 16.5211 11.995
91 2 8.48188 17.5313 12.494
96 2 6.56104 15.9043 11.8052
51 1 9.24823 17.7339 11.6867
107 3 12.0566 2.03461 1.01976
127 3 14.8054 2.00952 1.05564
151 3 13.446 1.13992 3.06498
155 3 14.6582 3.51737 3.05983
183 3 12.0205 3.5123 3.13528
111 3 13.4288 4.32413 1.06873
129 3 16.0773 4.2471 0.996373
169 3 15.9974 1.1645 3.11414
225 3 16.1141 4.34308 5.21469
203 3 12.0312 1.94303 5.16804
223 3 14.7644 2.06878 5.32728
207 3 13.4111 4.31811 5.23724
247 3 13.4164 1.22385 7.35331
251 3 14.7189 3.53868 7.40981
279 3 11.9889 3.44546 7.41827
319 3 14.7386 2.09209 9.47281
299 3 12.0277 1.90395 9.43729
303 3 13.3782 4.22533 9.49172
267 3 16.1341 1.25129 7.44346
321 3 15.9885 4.29399 9.62672
80 2 15.141 2.45804 12.7634
76 2 11.2827 4.183 12.3366
57 1 11.9336 3.60381 12.9091
29 1 15.1029 2.68982 11.6674
24 1 12.1938 1.3509 13.6852
7 1 15.6098 0.844413 12.4039
68 2 12.6784 2.1587 14.0485
28 1 14.0766 2.34837 13.0679
42 1 11.0819 0.569183 12.0299
38 1 12.7607 1.96187 15.0318
115 3 14.7031 6.60348 0.980202
144 3 12.0557 6.70278 0.952068
168 3 12.0039 8.25473 3.04947
187 3 13.3527 5.86243 3.05807
192 3 14.7146 8.17446 3.11869
124 3 13.4502 9.02467 0.926984
157 3 16.0543 5.84107 3.02646
211 3 14.7292 6.67396 5.17184
240 3 11.9451 6.64621 5.27902
220 3 13.3407 8.97003 5.21805
194 3 16.0541 8.96915 5.26158
289 3 16.0534 9.02901 9.41266
255 3 16.0655 5.87366 7.35915
283 3 13.3277 5.81034 7.40412
264 3 11.9924 8.13752 7.52288
287 3 14.6919 8.21536 7.37697
336 3 12.0358 6.65222 9.53749
307 3 14.7365 6.62094 9.45853
316 3 13.4116 9.06403 9.40367
18 1 10.8007 8.0261 11.782
48 1 12.7795 6.8276 12.1242
4 1 15.3559 6.17253 12.2194
44 1 11.668 5.84571 11.9196
84 2 14.7398 6.8848 11.8763
88 2 11.9391 6.70183 11.7396
14 1 14.8854 7.97785 12.0052
108 3 12.1019 11.2517 0.880805
128 3 14.7128 11.3066 0.983352
152 3 13.4741 10.5907 3.00677
156 3 14.8223 12.8792 3.03088
184 3 12.1249 12.9176 3.04847
112 3 13.3707 13.5871 0.910693
170 3 16.1565 10.5409 3.05889
130 3 16.0395 13.6826 0.898406
204 3 12.0391 11.2187 5.22141
224 3 14.8343 11.3504 5.14477
208 3 13.4184 13.6549 5.19557
280 3 12.0496 12.8683 7.28875
252 3 14.7677 12.9029 7.24475
268 3 16.0231 10.5017 7.25404
248 3 13.4125 10.4585 7.27539
226 3 16.1242 13.6909 5.25979
322 3 16.096 13.717 9.37803
300 3 11.9818 11.3506 9.43036
320 3 14.7556 11.46 9.2865
304 3 13.4742 13.6484 9.4061
79 2 16.0468 11.6601 14.2634
61 1 14.2805 12.9761 11.9262
35 1 11.4108 9.96842 11.7651
19 1 14.8189 10.7604 12.6459
69 2 11.7506 11.0103 11.7344
22 1 12.6244 10.7966 11.9039
93 2 14.0136 13.3047 12.801
9 1 11.4034 12.9336 11.6458
41 1 14.7084 13.0335 13.4748
75 2 14.3201 10.176 12.2711
23 1 14.6795 10.1493 11.3879
63 1 16.0418 11.2638 15.2175
116 3 14.8507 16.0361 0.953604
143 3 12.0523 16.1156 0.89523
167 3 12.0892 17.5105 3.0798
188 3 13.4179 15.2545 3.04067
191 3 14.8291 17.519 2.99584
123 3 13.3946 18.2727 0.898827
97 3 16.0679 18.3568 0.917178
158 3 16.0694 15.1676 3.03228
256 3 16.137 15.2743 7.34393
212 3 14.6946 15.9736 5.19334
239 3 12.0083 15.9171 5.20688
219 3 13.4989 18.2939 5.14308
284 3 13.4189 15.202 7.3458
193 3 16.0605 18.2833 5.22797
288 3 14.7492 17.5064 7.4592
263 3 12.1014 17.568 7.3748
335 3 12.0735 16.0255 9.45617
308 3 14.7476 15.9336 9.49153
315 3 13.3949 18.3453 9.5179
290 3 16.1195 18.3366 9.54465
95 2 11.9022 15.8372 12.0819
86 2 11.3815 18.5401 12.7831
49 1 11.3094 14.3181 11.8682
15 1 11.6671 16.6683 12.3238
71 2 14.7699 16.2398 11.8332
3 1 15.259 17.0447 12.001
59 1 15.1387 15.4668 12.4937
25 1 12.8084 15.691 12.0993
67 2 15.7854 18.6613 11.946
