ITEM: TIMESTEP
18404000
ITEM: NUMBER OF ATOMS
336
ITEM: BOX BOUNDS pp pp pp
0.0000000000000000e+00 1.6167135238600000e+01
0.0000000000000000e+00 1.8668199539200000e+01
0.0000000000000000e+00 2.5747400283800001e+01
ITEM: ATOMS id type x y z
117 3 1.2533 1.97645 0.913096
141 3 3.98189 1.92135 1.00723
145 3 2.61914 1.29078 3.05687
165 3 4.02044 3.53419 3.04687
173 3 1.25116 3.51064 3.04472
101 3 2.65986 4.25534 1.0449
121 3 5.33369 4.25606 0.952239
186 3 5.35016 1.18944 3.06744
213 3 1.26344 2.01215 5.14287
237 3 3.95554 1.99412 5.274
197 3 2.60006 4.26173 5.0554
217 3 5.21824 4.48165 5.23544
241 3 2.51636 1.24334 7.32245
282 3 5.36518 1.12164 7.37478
261 3 3.85024 3.61315 7.35865
269 3 1.2118 3.56047 7.43551
333 3 4.05338 2.02381 9.393
309 3 1.28895 2.02843 9.47292
293 3 2.55303 4.39105 9.41998
313 3 5.25104 4.37788 9.42887
77 2 4.11093 2.0742 12.6559
11 1 4.06349 3.03699 12.4225
2 1 3.00656 0.803717 12.1216
58 1 4.93017 1.68337 12.2696
17 1 0.356027 4.40251 12.5991
105 3 3.89386 6.61091 0.957024
133 3 1.26209 6.66586 0.88053
161 3 1.27229 8.18043 3.06023
177 3 2.59933 5.86217 2.9708
181 3 4.00375 8.17212 3.01474
137 3 2.61601 8.9659 0.994428
109 3 5.30855 8.96762 0.92803
149 3 5.26149 5.95311 3.04637
98 3 0.00958044 8.88185 0.983091
201 3 4.00853 6.76223 5.18439
229 3 1.29867 6.64202 5.18356
233 3 2.59001 9.02717 5.13367
245 3 5.34655 5.84761 7.32567
257 3 1.34316 8.17196 7.33231
273 3 2.59759 5.85217 7.26803
277 3 4.02919 8.31922 7.31065
205 3 5.3444 8.99383 5.09825
301 3 5.2753 9.06426 9.50459
329 3 2.58809 8.9603 9.48981
325 3 1.3651 6.64574 9.39929
297 3 3.97019 6.65624 9.48228
40 1 5.02291 7.63009 10.6182
45 1 2.87441 5.37094 13.1664
92 2 3.40109 8.40257 12.7918
78 2 3.78102 5.29817 12.4802
56 1 3.08681 7.30615 12.7333
13 1 3.5221 5.13646 11.5125
55 1 3.5799 8.6464 11.8329
73 2 0.958575 5.18242 12.5732
32 1 1.11535 5.20445 11.5555
118 3 1.32145 11.2873 0.942348
142 3 3.99027 11.4025 0.949413
146 3 2.57923 10.5161 2.95447
166 3 3.9997 12.912 3.02917
174 3 1.26962 12.8602 3.00894
102 3 2.64203 13.6223 0.962735
122 3 5.3057 13.5993 0.923127
185 3 5.26755 10.5559 3.00206
214 3 1.26723 11.3777 5.24056
238 3 3.92135 11.3499 5.14713
198 3 2.68468 13.6793 5.23526
242 3 2.66911 10.5545 7.28166
262 3 4.05168 12.8822 7.29235
270 3 1.35634 12.9204 7.33024
334 3 3.82629 11.3299 9.34855
310 3 1.28517 11.2813 9.46087
294 3 2.5517 13.7286 9.43778
281 3 5.36781 10.618 7.40949
314 3 5.30744 13.7891 9.43932
94 2 1.86068 10.6258 12.6931
50 1 1.67825 13.8901 11.988
5 1 2.41928 9.68668 12.8157
31 1 0.733995 11.0744 13.8972
62 1 1.77359 10.4093 11.7916
1 1 3.95138 12.741 11.5973
65 2 4.28811 12.3453 12.4954
16 1 3.47629 11.6937 12.6312
34 1 1.92425 13.7805 13.4402
106 3 4.04415 15.9819 0.946038
134 3 1.20969 16.0461 0.970606
162 3 1.2199 17.622 3.06216
178 3 2.59486 15.2141 2.95175
182 3 3.94179 17.6014 3.07475
138 3 2.64864 18.301 0.94507
110 3 5.36396 18.3212 0.967935
150 3 5.37922 15.2154 2.9994
202 3 3.98925 15.9761 5.13832
230 3 1.33838 16.0323 5.2358
234 3 2.64741 18.3268 5.1988
206 3 5.35798 18.2209 5.17247
274 3 2.57564 15.2147 7.32434
302 3 5.34928 18.4027 9.43152
246 3 5.33084 15.1651 7.37402
258 3 1.25021 17.57 7.43369
278 3 3.8904 17.5417 7.48006
326 3 1.19232 16.0029 9.38499
298 3 3.94281 15.9127 9.47898
330 3 2.58958 18.3222 9.5498
6 1 3.42698 15.2466 11.9932
70 2 3.93629 16.0937 11.8199
36 1 3.1154 17.7805 12.6572
64 1 4.94483 15.966 11.987
66 2 2.61795 18.5543 11.92
90 2 1.88687 14.4844 12.659
26 1 0.745412 18.6385 11.7471
114 3 6.64193 1.9392 0.939461
135 3 9.32991 2.03044 0.958039
159 3 8.00543 1.18735 3.02285
163 3 9.29216 3.49744 3.1297
189 3 6.58075 3.4308 3.07732
100 3 8.05871 4.35727 0.995735
179 3 10.6825 1.18458 2.95566
139 3 10.6938 4.21663 1.01858
210 3 6.65617 1.95511 5.22469
231 3 9.38351 1.98323 5.24143
196 3 7.99286 4.28435 5.22636
235 3 10.6952 4.2841 5.22796
254 3 7.98259 1.22594 7.28625
286 3 6.61857 3.47027 7.37356
259 3 9.35352 3.51392 7.44108
327 3 9.37256 1.99906 9.53123
306 3 6.72447 2.01599 9.47326
291 3 7.96108 4.32979 9.51293
275 3 10.7384 1.23925 7.38089
331 3 10.5772 4.40841 9.4553
33 1 6.99055 1.10444 11.7429
83 2 8.49106 3.516 12.7955
81 2 6.91098 1.15108 12.748
39 1 8.47766 3.21396 11.9146
20 1 10.2747 4.16269 12.5566
37 1 7.47296 2.03487 12.9617
47 1 8.08148 4.44507 12.7751
120 3 9.27048 6.59112 0.925315
125 3 6.66024 6.61564 0.960216
153 3 6.74694 8.22555 3.01721
172 3 7.93283 5.8297 3.05917
176 3 9.41078 8.25095 3.07096
132 3 8.02608 9.01705 0.871651
148 3 10.7066 5.82962 3.04618
104 3 10.6836 9.07406 1.03913
200 3 10.7326 8.99096 5.27942
216 3 9.29465 6.61776 5.18623
221 3 6.68056 6.7083 5.2687
228 3 8.01325 8.99854 5.31466
272 3 9.35289 8.13167 7.34795
244 3 10.63 5.89475 7.31972
296 3 10.5479 8.99301 9.50565
265 3 8.02561 5.75305 7.40992
249 3 6.65644 8.20563 7.37478
312 3 9.3097 6.68763 9.43735
317 3 6.59196 6.69849 9.38426
324 3 7.89091 8.99305 9.48957
60 1 7.38432 8.1307 12.034
21 1 5.71578 6.10184 12.6868
74 2 10.4233 8.84227 11.7415
72 2 6.66403 5.96625 12.6027
12 1 6.53519 5.50312 11.6873
8 1 9.01645 8.90897 11.7296
87 2 7.97108 8.97669 11.6487
113 3 6.65456 11.3738 0.909113
136 3 9.36624 11.4038 0.985443
160 3 8.05343 10.476 3.05777
164 3 9.39 12.8708 3.00185
190 3 6.66822 12.8594 3.00336
99 3 8.01829 13.6707 0.87893
140 3 10.7289 13.6768 0.900469
180 3 10.7401 10.568 3.09723
236 3 10.68 13.629 5.1165
209 3 6.62101 11.3005 5.24762
232 3 9.37577 11.3458 5.20016
195 3 8.05389 13.5721 5.14057
260 3 9.31416 12.7707 7.32622
276 3 10.7131 10.558 7.33678
218 3 5.45938 13.6262 5.20382
332 3 10.6633 13.6059 9.34692
253 3 7.96076 10.5608 7.37728
285 3 6.68632 12.8928 7.41277
305 3 6.57327 11.4031 9.51105
328 3 9.23723 11.311 9.43682
292 3 8.15422 13.6174 9.50129
30 1 6.60704 10.4046 12.11
82 2 6.61015 11.2548 11.8717
54 1 5.66662 11.4067 11.8668
43 1 7.56337 12.7028 11.8369
10 1 9.20279 13.3807 11.8922
89 2 8.1179 13.4822 11.6514
85 2 10.7274 13.5485 11.6589
119 3 9.31897 15.9668 0.906029
126 3 6.69541 16.0194 0.817576
154 3 6.72466 17.5218 2.99896
171 3 8.04356 15.1712 2.99056
175 3 9.3726 17.549 3.00682
131 3 8.02425 18.2389 0.932443
103 3 10.6612 18.2888 0.904733
147 3 10.7329 15.2275 3.0104
243 3 10.643 15.2495 7.34678
215 3 9.38652 15.9401 5.21182
222 3 6.75899 15.9279 5.21279
227 3 8.03304 18.3182 5.17607
199 3 10.6845 18.2073 5.30464
266 3 8.01484 15.1325 7.20789
271 3 9.27894 17.5142 7.37866
250 3 6.65148 17.5086 7.41785
311 3 9.37948 15.9684 9.46386
318 3 6.71757 15.9314 9.46388
323 3 7.94729 18.3113 9.48983
295 3 10.745 18.3261 9.40943
51 1 9.15225 17.6116 11.6448
53 1 6.84456 14.9331 11.907
52 1 8.05469 18.5274 12.6473
27 1 7.30989 16.5444 12.1168
91 2 8.55467 17.5224 12.5246
96 2 6.56743 15.9049 11.8053
46 1 10.5928 18.2601 13.1259
107 3 12.049 2.01894 1.01413
127 3 14.8095 2.02823 1.07792
151 3 13.4115 1.14506 3.05159
155 3 14.6433 3.52708 3.06232
183 3 12.0245 3.51491 3.12125
111 3 13.4243 4.31244 1.08586
129 3 16.1239 4.23957 1.00331
169 3 16.011 1.16102 3.13092
203 3 12.0256 1.93344 5.16434
223 3 14.7676 2.07712 5.3233
207 3 13.4285 4.30092 5.2274
247 3 13.417 1.24291 7.34741
225 3 16.1106 4.36353 5.209
267 3 16.1432 1.23936 7.44217
279 3 11.9885 3.4711 7.43456
251 3 14.6985 3.57054 7.39967
319 3 14.7327 2.10001 9.48206
299 3 12.0194 1.92554 9.42041
303 3 13.3735 4.19526 9.52005
321 3 15.993 4.29481 9.62708
68 2 12.6568 2.11346 14.015
29 1 14.9906 2.83254 11.8819
7 1 15.7278 0.790239 12.1529
57 1 11.9019 3.62614 12.938
80 2 15.1516 2.41445 12.7452
28 1 14.1955 2.12827 12.8556
24 1 11.992 1.46279 13.5313
42 1 11.3118 0.334101 11.8597
76 2 11.2699 4.13106 12.3271
38 1 12.6705 2.14176 14.9924
115 3 14.7361 6.60658 0.971759
144 3 12.0534 6.71174 0.992885
168 3 12.0226 8.23935 3.03475
187 3 13.3756 5.88692 3.05159
192 3 14.7156 8.17107 3.08715
124 3 13.4389 9.01211 0.949286
157 3 16.0676 5.85218 3.04218
211 3 14.6916 6.66265 5.18749
240 3 11.9623 6.64084 5.22899
220 3 13.3491 8.98736 5.21955
287 3 14.6954 8.18833 7.3401
194 3 16.0551 8.96604 5.2604
255 3 16.0664 5.88483 7.35796
283 3 13.3224 5.8331 7.44081
264 3 12.0142 8.12755 7.51608
307 3 14.7346 6.61311 9.46914
336 3 12.0093 6.63189 9.51643
316 3 13.4364 9.03333 9.3758
289 3 16.0406 9.04261 9.39602
18 1 11.1029 7.96382 11.9748
84 2 14.7101 6.84013 11.9383
48 1 12.779 6.87343 12.0805
4 1 15.3999 6.13502 12.2266
14 1 15.0481 7.84537 12.2884
88 2 11.8798 6.68584 11.7426
44 1 11.6632 5.83972 12.0465
108 3 12.1115 11.2506 0.872406
128 3 14.7771 11.2929 0.97536
152 3 13.4528 10.5707 3.00576
156 3 14.7978 12.8729 3.05514
184 3 12.1254 12.9144 3.04072
112 3 13.3487 13.6097 0.919886
170 3 16.1227 10.5306 3.06887
130 3 16.0188 13.6815 0.89813
204 3 12.0583 11.2621 5.20231
224 3 14.8182 11.3364 5.17987
208 3 13.4298 13.6525 5.21892
252 3 14.7712 12.9109 7.24369
280 3 12.052 12.881 7.31092
248 3 13.3958 10.46 7.27571
268 3 16.0277 10.5368 7.26489
226 3 16.1339 13.6658 5.25035
320 3 14.7577 11.4438 9.28452
300 3 11.9941 11.3707 9.41465
304 3 13.5019 13.6336 9.39076
322 3 16.1325 13.7369 9.39657
23 1 14.8702 10.0622 11.4664
35 1 11.2153 10.1552 11.7169
61 1 14.0435 12.9795 11.9733
22 1 12.8004 10.8188 11.9811
79 2 16.0372 11.6651 14.2976
9 1 11.3753 12.7229 11.6053
41 1 14.7305 13.1004 13.3707
69 2 11.7061 11.106 11.7283
19 1 15.0147 10.7391 12.8028
93 2 13.9657 13.3473 12.9343
75 2 14.309 10.203 12.1997
63 1 15.7068 11.3138 15.1859
116 3 14.8303 16.0082 0.949292
143 3 12.0428 16.1202 0.893968
167 3 12.0793 17.5381 3.07395
188 3 13.4286 15.2354 3.06897
191 3 14.8225 17.4994 2.99567
123 3 13.4142 18.2633 0.906532
97 3 16.0768 18.3786 0.912475
158 3 16.0379 15.1592 3.03236
212 3 14.737 15.9634 5.19343
239 3 12.0052 15.9427 5.22956
219 3 13.5075 18.2698 5.14124
193 3 16.0487 18.2895 5.22923
256 3 16.1298 15.2382 7.34301
284 3 13.4156 15.2121 7.36216
288 3 14.7372 17.5057 7.46135
263 3 12.0882 17.5749 7.39346
308 3 14.729 15.9356 9.4651
335 3 12.062 16.0069 9.44308
315 3 13.4136 18.4001 9.48264
290 3 16.1327 18.3325 9.56656
86 2 11.3698 18.6243 12.7504
3 1 15.2599 17.0823 12.1227
49 1 11.059 14.4207 11.8538
71 2 14.7023 16.2726 11.82
15 1 11.7914 16.8273 12.4278
25 1 12.9575 15.6603 12.2951
95 2 11.9698 15.8854 12.0487
59 1 15.1454 15.3601 12.3488
67 2 15.8913 18.6668 11.9828
