ITEM: TIMESTEP
18404000
ITEM: NUMBER OF ATOMS
336
ITEM: BOX BOUNDS pp pp pp
0.0000000000000000e+00 1.6167135238600000e+01
0.0000000000000000e+00 1.8668199539200000e+01
0.0000000000000000e+00 2.5747400283800001e+01
ITEM: ATOMS id type x y z
117 3 1.24983 1.95289 0.942492
141 3 4.00403 1.88976 0.991595
145 3 2.61383 1.26874 2.99956
165 3 4.03771 3.54163 3.07859
173 3 1.25468 3.51148 3.05491
101 3 2.66413 4.25978 1.03849
186 3 5.3315 1.16397 3.08383
121 3 5.32263 4.25219 0.966546
213 3 1.2831 2.00925 5.14851
237 3 3.95032 2.01366 5.28182
197 3 2.61046 4.24044 5.07744
217 3 5.22611 4.47985 5.23415
241 3 2.49419 1.25436 7.32089
282 3 5.33841 1.11861 7.38515
261 3 3.84786 3.6178 7.36078
269 3 1.22149 3.59143 7.42378
309 3 1.27794 2.03294 9.48703
333 3 4.04761 2.04171 9.37573
293 3 2.54316 4.35658 9.42546
313 3 5.23254 4.37267 9.41638
2 1 3.15366 0.579474 12.1223
77 2 4.04997 2.07513 12.6107
11 1 3.88709 3.03749 12.4952
58 1 5.19435 1.92562 12.6565
17 1 0.370929 4.3947 12.5472
26 1 0.573076 0.0640662 12.0299
105 3 3.90064 6.59664 0.948788
133 3 1.2945 6.65782 0.855104
161 3 1.25153 8.17287 3.06035
177 3 2.57266 5.91176 2.95731
181 3 3.99529 8.17153 3.02676
137 3 2.62528 8.99863 0.992657
109 3 5.30188 8.98552 0.886668
149 3 5.26225 5.92714 3.04973
245 3 5.34099 5.85715 7.30405
201 3 4.00783 6.78217 5.17971
229 3 1.30315 6.63125 5.19212
233 3 2.58835 9.03387 5.14284
277 3 4.05011 8.30756 7.29639
273 3 2.57494 5.88331 7.27044
257 3 1.3556 8.1829 7.32722
205 3 5.33528 8.99172 5.13709
329 3 2.56159 8.9789 9.51874
297 3 3.97521 6.62567 9.47222
325 3 1.37264 6.67098 9.39257
301 3 5.26279 9.04213 9.51865
73 2 0.906745 5.18382 12.5089
45 1 3.07224 5.31327 13.0813
56 1 3.12683 7.53588 13.1863
55 1 3.59553 8.39183 11.8408
13 1 3.60861 5.29451 11.5655
78 2 3.84819 5.36436 12.529
92 2 3.43964 8.42376 12.7668
32 1 1.10603 5.13234 11.6643
118 3 1.32695 11.2978 0.965472
142 3 3.9958 11.4094 0.958715
146 3 2.57525 10.4904 2.94655
166 3 4.00314 12.9117 3.04829
174 3 1.24557 12.8329 2.99006
102 3 2.62922 13.664 0.938315
122 3 5.30924 13.5899 0.953151
185 3 5.25266 10.5721 3.01311
214 3 1.24897 11.3798 5.22787
238 3 3.91909 11.3305 5.17763
198 3 2.71062 13.6876 5.27078
242 3 2.67396 10.5598 7.26009
262 3 4.01806 12.8733 7.31649
270 3 1.34365 12.9177 7.34296
314 3 5.31058 13.7896 9.46911
334 3 3.85363 11.3189 9.33885
310 3 1.28168 11.3066 9.43894
294 3 2.59059 13.7723 9.43689
281 3 5.3568 10.619 7.39216
65 2 4.24948 12.3651 12.3873
16 1 3.58973 11.7229 12.5517
31 1 0.751856 11.1384 13.6863
62 1 1.8008 10.4788 11.727
34 1 1.99544 13.6686 13.2179
1 1 4.01727 12.7332 11.3969
94 2 1.82862 10.6141 12.7682
5 1 2.45195 9.89494 13.0852
106 3 4.04579 15.9961 0.946625
134 3 1.28047 16.0686 0.978162
162 3 1.21288 17.6224 3.05834
178 3 2.56695 15.2274 2.95268
182 3 3.92698 17.5924 3.08694
138 3 2.65705 18.3002 0.908025
110 3 5.34955 18.3143 0.980501
150 3 5.38258 15.2216 2.99456
202 3 3.98175 15.9527 5.14892
230 3 1.36524 16.014 5.21307
234 3 2.64743 18.3539 5.19019
206 3 5.34355 18.229 5.21053
274 3 2.6156 15.2008 7.32577
246 3 5.34561 15.1304 7.3528
278 3 3.91887 17.5306 7.47168
258 3 1.25468 17.566 7.43296
298 3 3.90048 15.9087 9.46916
326 3 1.20563 16.011 9.42063
330 3 2.61647 18.3116 9.557
6 1 3.34234 15.3514 12.2477
50 1 1.86629 14.1581 11.6896
90 2 1.87141 14.5204 12.6854
64 1 5.0639 16.0215 11.8323
70 2 3.92813 16.1034 11.8336
36 1 3.23178 17.84 12.2839
66 2 2.68584 18.5889 11.8194
114 3 6.64073 1.93002 0.92596
135 3 9.31545 2.03703 0.950617
159 3 8.00537 1.18202 3.01737
163 3 9.30944 3.49712 3.14744
189 3 6.62333 3.42659 3.09736
100 3 8.04436 4.34617 1.02614
139 3 10.6839 4.19653 0.988436
179 3 10.6949 1.20855 2.96723
210 3 6.63838 1.92773 5.21162
231 3 9.39962 1.99239 5.2485
196 3 7.98855 4.27044 5.19751
235 3 10.6842 4.29062 5.18945
254 3 7.99332 1.21814 7.319
286 3 6.58752 3.47608 7.38854
259 3 9.37157 3.53853 7.43098
306 3 6.70201 2.01314 9.47328
327 3 9.37419 1.99333 9.57208
291 3 7.99866 4.32203 9.4724
275 3 10.7157 1.23743 7.37198
331 3 10.5746 4.41458 9.45671
47 1 7.78317 4.25021 12.9852
20 1 10.4281 3.94972 12.635
83 2 8.49211 3.52456 12.8092
37 1 7.4517 2.18916 13.1131
39 1 8.63511 3.4892 11.801
33 1 7.13647 1.29496 11.6104
81 2 6.93921 1.20461 12.8319
120 3 9.27711 6.59911 0.900493
125 3 6.66712 6.60297 0.956212
153 3 6.76884 8.21216 3.01646
172 3 7.95426 5.82427 3.04823
176 3 9.38282 8.21063 3.10144
132 3 7.95615 9.06376 0.878871
148 3 10.7596 5.84672 3.06619
104 3 10.694 9.06931 1.02242
228 3 7.98821 9.00453 5.30687
216 3 9.28882 6.6029 5.18791
221 3 6.67131 6.7294 5.26173
200 3 10.7426 8.99179 5.29193
272 3 9.33057 8.15204 7.32462
249 3 6.6819 8.22257 7.3476
296 3 10.5239 9.00684 9.51442
265 3 8.02314 5.78459 7.41073
244 3 10.622 5.88261 7.37543
312 3 9.28411 6.7003 9.4486
317 3 6.60938 6.70019 9.40074
324 3 7.90841 9.02587 9.48293
40 1 5.56645 7.55318 10.7641
74 2 10.4694 8.90931 11.6905
8 1 8.98637 8.78421 11.5836
12 1 6.73904 5.80809 11.541
60 1 7.64996 7.99194 12.0512
72 2 6.66256 5.97354 12.5644
87 2 7.89682 8.93354 11.654
21 1 5.70167 6.10095 12.6241
113 3 6.63056 11.3872 0.867898
136 3 9.37109 11.4301 0.956795
160 3 8.04246 10.5001 3.08351
164 3 9.38531 12.9027 3.02084
190 3 6.69203 12.8612 2.9843
99 3 8.00543 13.6527 0.890929
140 3 10.7229 13.6892 0.904474
180 3 10.7217 10.5793 3.08521
209 3 6.64596 11.3079 5.21689
232 3 9.36595 11.3488 5.19491
195 3 8.03312 13.5797 5.15645
276 3 10.7036 10.5729 7.34737
260 3 9.28978 12.7665 7.34188
236 3 10.6833 13.5896 5.10549
218 3 5.42835 13.6055 5.22688
253 3 7.9513 10.558 7.39173
285 3 6.70316 12.9046 7.44954
328 3 9.23131 11.2746 9.43268
305 3 6.56903 11.3924 9.51915
292 3 8.15613 13.6153 9.51111
332 3 10.6459 13.63 9.37793
43 1 7.44993 12.9272 12.1108
82 2 6.6405 11.2821 11.9233
30 1 6.95051 10.4434 12.1801
89 2 8.07502 13.5139 11.6707
54 1 5.67046 11.4018 12.095
10 1 9.14086 13.4059 12.0383
85 2 10.7108 13.5504 11.6592
119 3 9.32847 15.9834 0.900644
126 3 6.68881 16.0394 0.828937
154 3 6.67935 17.4948 3.02145
171 3 8.01878 15.1916 2.98912
175 3 9.38229 17.5484 3.03619
131 3 8.02248 18.2217 0.959098
147 3 10.7474 15.2317 3.01746
103 3 10.6128 18.2998 0.921923
227 3 8.01204 18.311 5.1807
215 3 9.39569 15.9406 5.20469
222 3 6.72621 15.9349 5.23393
266 3 8.02671 15.1586 7.20694
199 3 10.6925 18.2498 5.32894
250 3 6.65171 17.5053 7.41994
271 3 9.31426 17.5446 7.40186
318 3 6.70111 15.897 9.45134
311 3 9.36384 15.9864 9.44137
323 3 7.96074 18.3439 9.48953
295 3 10.7427 18.3248 9.40828
243 3 10.6378 15.2205 7.38027
302 3 5.39374 18.3677 9.42665
52 1 7.76159 18.5175 12.5872
27 1 7.28027 16.5922 12.1761
91 2 8.50658 17.6027 12.5187
96 2 6.57173 15.8524 11.8103
53 1 6.89239 14.9441 12.2773
51 1 9.1725 17.6164 11.7848
46 1 10.5315 18.3938 13.1168
107 3 12.0602 2.01018 1.02393
127 3 14.7843 2.04325 1.06181
151 3 13.4052 1.15509 3.06999
155 3 14.6281 3.50196 3.04501
183 3 12.0368 3.51462 3.12183
111 3 13.4326 4.32955 1.04544
129 3 16.093 4.23027 1.00934
169 3 15.9946 1.16511 3.11443
203 3 12.0151 1.92431 5.16877
223 3 14.774 2.07277 5.30746
207 3 13.4037 4.31774 5.25162
225 3 16.1108 4.35225 5.21599
267 3 16.146 1.23467 7.44245
279 3 12.0113 3.4743 7.45484
251 3 14.7268 3.57243 7.37186
247 3 13.4152 1.19897 7.36572
299 3 11.9982 1.91686 9.41241
319 3 14.7599 2.11479 9.47321
303 3 13.3853 4.21141 9.50543
321 3 15.9929 4.30617 9.62367
76 2 11.3223 4.13208 12.3426
68 2 12.7048 2.10621 14.0433
28 1 14.1423 2.20243 13.1478
80 2 15.1799 2.44623 12.7707
7 1 15.5072 0.946862 12.2201
57 1 11.908 3.63587 13.0435
24 1 12.0179 1.53853 13.6445
29 1 15.2206 2.79294 11.7294
42 1 10.9348 0.459156 11.9606
38 1 12.699 1.94735 15.0156
115 3 14.7275 6.59345 0.966771
144 3 12.0298 6.70493 0.953576
168 3 12.0022 8.25668 3.06568
187 3 13.3872 5.8627 3.02458
192 3 14.7171 8.1817 3.12559
124 3 13.4412 9.03686 0.941439
157 3 16.0686 5.86116 3.03547
98 3 16.1279 8.90583 0.973946
211 3 14.7234 6.6506 5.16228
240 3 11.9416 6.6398 5.26515
220 3 13.3707 8.96233 5.21082
194 3 16.0521 8.97468 5.24405
255 3 16.08 5.86128 7.38577
283 3 13.3424 5.80281 7.41856
289 3 16.0493 9.05596 9.37174
264 3 12.0038 8.15376 7.49739
287 3 14.7078 8.20383 7.37854
336 3 12.0225 6.64145 9.52447
307 3 14.7416 6.60741 9.45233
316 3 13.4253 9.06184 9.38937
4 1 15.478 6.27493 12.1633
88 2 11.8952 6.69865 11.7558
48 1 12.6223 6.88391 12.0836
14 1 14.9354 7.93512 11.8877
44 1 11.656 5.59391 11.8567
84 2 14.7777 6.87819 11.8457
18 1 10.8439 7.94595 11.8651
108 3 12.0985 11.2543 0.917339
128 3 14.7623 11.3239 0.989035
152 3 13.4494 10.5437 3.00979
156 3 14.8057 12.908 3.02877
184 3 12.1269 12.9216 3.02586
112 3 13.3466 13.6132 0.905156
170 3 16.1218 10.5235 3.06795
130 3 16.0624 13.6872 0.88241
204 3 12.053 11.211 5.20831
224 3 14.8204 11.3076 5.16756
208 3 13.4073 13.6606 5.20908
280 3 12.0775 12.8685 7.29857
252 3 14.779 12.9072 7.22388
268 3 16.0454 10.5235 7.25937
248 3 13.4127 10.4701 7.285
226 3 16.1312 13.6798 5.26642
320 3 14.741 11.4493 9.29441
300 3 11.97 11.3679 9.38983
304 3 13.474 13.6396 9.40649
322 3 16.0986 13.7158 9.35015
19 1 14.9264 10.9032 12.5735
93 2 14.013 13.3369 12.7895
75 2 14.2995 10.2171 12.2282
9 1 11.3128 12.854 11.8271
22 1 12.6052 10.6909 12.1299
69 2 11.7406 11.0841 11.6998
35 1 11.2556 9.9217 11.6983
79 2 16.0116 11.664 14.2942
41 1 14.5653 12.8379 13.5138
61 1 14.0598 12.9444 11.7816
23 1 14.6282 9.93736 11.2635
63 1 15.8192 11.4141 15.2562
116 3 14.8382 16.0035 0.957672
143 3 12.055 16.1375 0.87428
167 3 12.0848 17.504 3.08463
188 3 13.455 15.2328 3.03836
191 3 14.8308 17.5111 2.99497
123 3 13.3831 18.2576 0.900772
97 3 16.0658 18.3695 0.915362
158 3 16.0664 15.1638 3.01643
212 3 14.7135 15.9763 5.21546
239 3 12.0138 15.9198 5.19198
219 3 13.5138 18.2734 5.1852
193 3 16.041 18.271 5.19095
256 3 16.1305 15.2582 7.32665
284 3 13.4005 15.19 7.36152
263 3 12.1033 17.5564 7.37292
288 3 14.7607 17.4822 7.47483
308 3 14.7533 15.9384 9.47819
335 3 12.0468 15.9968 9.44808
315 3 13.4197 18.3751 9.51638
290 3 16.1279 18.3082 9.57431
71 2 14.7189 16.3326 11.8996
25 1 12.8718 15.6521 12.2361
49 1 11.203 14.3424 12.048
59 1 15.0594 15.5664 12.4259
3 1 15.4056 17.1211 12.1042
95 2 11.9577 15.8665 12.0059
15 1 11.6648 16.7362 12.4888
86 2 11.3082 18.6118 12.7502
67 2 15.8119 18.6407 12.0037
