ITEM: TIMESTEP
18404000
ITEM: NUMBER OF ATOMS
336
ITEM: BOX BOUNDS pp pp pp
0.0000000000000000e+00 1.6167135238600000e+01
0.0000000000000000e+00 1.8668199539200000e+01
0.0000000000000000e+00 2.5747400283800001e+01
ITEM: ATOMS id type x y z
117 3 1.2625 1.97498 0.941126
141 3 4.00074 1.87767 0.987451
145 3 2.61218 1.26309 3.04523
165 3 4.03939 3.53575 3.05334
173 3 1.25353 3.51698 3.05041
101 3 2.65586 4.27144 1.04749
186 3 5.33775 1.16825 3.0742
121 3 5.31885 4.22421 0.974957
213 3 1.29413 2.01621 5.14222
237 3 3.97867 1.99919 5.26514
197 3 2.59942 4.2357 5.04108
217 3 5.23601 4.50118 5.24881
241 3 2.53447 1.26076 7.28924
261 3 3.87032 3.6034 7.35274
282 3 5.34207 1.10834 7.37524
269 3 1.22467 3.56617 7.42798
309 3 1.29267 2.04809 9.47487
333 3 4.06479 2.02542 9.37954
293 3 2.55689 4.3724 9.43819
313 3 5.2268 4.36861 9.42271
2 1 3.3025 0.690805 12.1913
11 1 4.00761 3.03209 12.6265
77 2 4.10167 2.05269 12.5841
58 1 5.01167 1.76627 12.4796
17 1 0.510056 4.35385 12.7798
26 1 0.812134 0.0426196 12.0666
105 3 3.924 6.61102 0.944437
133 3 1.26989 6.61966 0.886423
161 3 1.2814 8.1729 3.03308
177 3 2.5703 5.88866 2.96775
181 3 4.01313 8.17508 3.019
137 3 2.61217 8.9843 0.999164
109 3 5.28911 8.9742 0.886728
149 3 5.27654 5.91119 3.03783
98 3 0.00864888 8.88105 0.982946
201 3 3.98419 6.78134 5.17854
229 3 1.30078 6.629 5.16773
233 3 2.56391 9.0152 5.14107
277 3 4.05193 8.32171 7.28673
273 3 2.59887 5.86173 7.27822
257 3 1.33835 8.18505 7.32085
245 3 5.34257 5.84931 7.31505
205 3 5.35612 9.0342 5.11784
297 3 3.9496 6.61852 9.47441
325 3 1.3687 6.65647 9.3871
329 3 2.56568 8.97627 9.50798
301 3 5.26963 9.06558 9.49549
40 1 5.07577 7.51586 10.4325
73 2 0.969755 5.17304 12.5395
55 1 3.64257 8.53558 11.706
56 1 3.02947 7.57911 12.7009
45 1 3.03082 5.36179 13.2721
92 2 3.4625 8.42091 12.7833
13 1 3.59609 5.12739 11.6185
78 2 3.79441 5.3246 12.507
32 1 1.09441 5.08974 11.61
118 3 1.31587 11.269 0.954949
142 3 4.00747 11.4152 0.934191
146 3 2.56798 10.4989 2.94497
166 3 3.99046 12.891 3.0384
174 3 1.24269 12.8586 3.01512
102 3 2.6253 13.6556 0.954912
122 3 5.30936 13.5847 0.907428
185 3 5.26039 10.607 2.99762
214 3 1.24964 11.3562 5.23368
238 3 3.91144 11.3363 5.16345
198 3 2.68258 13.6856 5.22269
242 3 2.66659 10.5635 7.28535
262 3 4.03024 12.8642 7.29661
270 3 1.33637 12.9206 7.31578
310 3 1.28878 11.2767 9.46453
334 3 3.85551 11.3479 9.33367
294 3 2.5672 13.7597 9.4203
281 3 5.34707 10.5968 7.38388
314 3 5.30042 13.8043 9.44266
5 1 2.36508 9.8682 13.0631
94 2 1.82961 10.6558 12.7504
62 1 1.91927 10.5944 11.7737
50 1 1.85678 13.9762 11.6509
31 1 0.586948 11.1955 13.9851
16 1 3.43137 11.8443 12.5828
65 2 4.26776 12.3777 12.4103
1 1 3.98185 12.647 11.3415
34 1 2.0952 13.7179 13.3245
106 3 4.04906 15.9994 0.96462
134 3 1.21526 16.0383 0.967568
162 3 1.20789 17.6024 3.04013
178 3 2.56186 15.223 2.94545
182 3 3.9647 17.6204 3.08869
138 3 2.67123 18.3256 0.944377
110 3 5.3696 18.3158 0.968729
246 3 5.3591 15.1504 7.3455
202 3 3.97488 15.9915 5.13977
230 3 1.33716 16.0108 5.24408
234 3 2.62937 18.3129 5.20593
206 3 5.36206 18.2241 5.18314
274 3 2.57914 15.2114 7.34378
302 3 5.32987 18.3999 9.42713
278 3 3.91049 17.5362 7.4804
258 3 1.25473 17.5851 7.44448
326 3 1.20377 16.035 9.41025
298 3 3.91679 15.8977 9.5075
330 3 2.6008 18.3226 9.57216
90 2 1.86025 14.4603 12.697
6 1 3.12892 15.4219 12.127
70 2 3.96069 16.0679 11.8374
64 1 5.00492 16.01 11.8701
66 2 2.67129 18.5069 11.8701
36 1 3.0931 17.6687 12.5551
114 3 6.64793 1.92323 0.944351
135 3 9.31502 2.02617 0.96368
159 3 8.02199 1.18871 3.0121
163 3 9.29117 3.49744 3.14529
189 3 6.60388 3.43325 3.08094
100 3 8.05475 4.34044 1.00434
139 3 10.677 4.22285 1.01708
179 3 10.689 1.21087 2.962
235 3 10.6964 4.28081 5.20016
210 3 6.6753 1.93936 5.24102
231 3 9.38901 1.97617 5.23021
196 3 7.99669 4.28663 5.20738
254 3 7.97962 1.20333 7.29255
331 3 10.5893 4.38775 9.46598
286 3 6.61912 3.4753 7.36026
259 3 9.38819 3.52855 7.42002
291 3 7.98551 4.31092 9.46766
306 3 6.72721 2.03537 9.48567
327 3 9.35256 2.00086 9.55288
275 3 10.7251 1.23573 7.35763
20 1 10.4495 4.23506 12.7973
47 1 7.82831 4.32457 12.8984
39 1 8.66476 3.37526 11.9359
33 1 6.98291 1.30836 11.7553
83 2 8.50227 3.52752 12.8041
81 2 6.94977 1.20158 12.8308
37 1 7.42623 2.06726 12.9517
120 3 9.29714 6.60892 0.918944
125 3 6.68 6.60692 0.979935
153 3 6.75647 8.24039 3.00116
172 3 7.94445 5.8167 3.04466
176 3 9.38855 8.2389 3.09228
132 3 7.96415 9.00307 0.889685
148 3 10.7128 5.84287 3.03882
104 3 10.7076 9.08699 1.02726
200 3 10.7419 8.98867 5.27589
216 3 9.31487 6.60222 5.16222
221 3 6.6839 6.7439 5.27546
228 3 8.00096 9.00672 5.31646
272 3 9.33754 8.15968 7.35115
244 3 10.6294 5.91058 7.3214
296 3 10.5405 8.99289 9.51044
265 3 8.0408 5.77462 7.42364
249 3 6.64448 8.22251 7.36733
312 3 9.2797 6.68173 9.43625
317 3 6.61154 6.72115 9.39758
324 3 7.88535 8.97969 9.47546
8 1 9.02546 8.80084 11.7667
74 2 10.4515 8.86699 11.7762
21 1 5.65658 6.11357 12.5033
12 1 6.68566 5.68097 11.616
87 2 7.90728 8.9083 11.6421
60 1 7.65037 8.0085 11.9061
72 2 6.63501 5.89096 12.5197
113 3 6.64002 11.3886 0.90433
136 3 9.34981 11.4001 0.953996
160 3 8.0521 10.4961 3.05751
164 3 9.3939 12.9097 2.99708
190 3 6.69238 12.8456 2.99402
99 3 8.00291 13.6424 0.90187
140 3 10.7318 13.652 0.907012
180 3 10.6976 10.5857 3.08647
236 3 10.6764 13.6162 5.11634
276 3 10.6861 10.5827 7.32539
209 3 6.63651 11.2914 5.24122
232 3 9.37014 11.3527 5.20048
195 3 8.05021 13.5576 5.16277
260 3 9.29258 12.7867 7.32444
218 3 5.41307 13.6219 5.19237
253 3 7.96049 10.5464 7.40241
285 3 6.68753 12.911 7.40354
305 3 6.57155 11.4012 9.49012
328 3 9.24949 11.3039 9.42333
292 3 8.13523 13.6137 9.51865
332 3 10.66 13.6341 9.36569
89 2 8.08437 13.5192 11.6512
43 1 7.54727 12.7349 11.9993
82 2 6.5836 11.2498 11.9585
30 1 6.65669 10.1853 12.2613
10 1 9.05814 13.2676 11.9111
54 1 5.63438 11.407 12.2567
85 2 10.7523 13.5349 11.7038
119 3 9.3046 15.9664 0.917146
126 3 6.69766 16.0224 0.821132
154 3 6.6963 17.5011 3.01058
171 3 8.02085 15.209 2.99605
175 3 9.36557 17.536 3.01222
131 3 8.03774 18.2373 0.916654
103 3 10.6435 18.2802 0.909323
147 3 10.7377 15.2299 3.00739
150 3 5.3919 15.2188 3.01927
215 3 9.40251 15.9204 5.20009
222 3 6.75045 15.9176 5.21903
227 3 8.04382 18.3257 5.17895
199 3 10.7142 18.2079 5.32147
266 3 8.02849 15.1384 7.22452
243 3 10.6302 15.2505 7.36906
271 3 9.29702 17.5315 7.39987
250 3 6.66271 17.5058 7.42002
318 3 6.71548 15.9234 9.46455
311 3 9.35918 15.9686 9.47016
323 3 7.9706 18.3157 9.48468
295 3 10.7445 18.3197 9.39926
52 1 8.04854 18.5944 12.6709
91 2 8.55125 17.5902 12.5945
96 2 6.55672 15.9067 11.816
53 1 6.89741 15.0509 12.0294
27 1 7.31524 16.4856 12.0579
51 1 9.18744 17.3911 11.8006
46 1 10.3687 18.4255 13.1454
107 3 12.0386 2.00959 1.00138
127 3 14.7973 2.02919 1.05885
151 3 13.441 1.13714 3.04574
155 3 14.6232 3.51751 3.06429
183 3 12.0354 3.52131 3.1253
111 3 13.4303 4.32151 1.0685
129 3 16.0885 4.22821 0.990484
169 3 16.0022 1.15638 3.11607
225 3 16.1255 4.35334 5.21753
203 3 12.0172 1.94058 5.1801
223 3 14.7937 2.0422 5.30645
207 3 13.4053 4.29848 5.2437
279 3 12.0102 3.46655 7.44421
251 3 14.7054 3.56888 7.37581
247 3 13.4273 1.19888 7.36871
319 3 14.729 2.09641 9.49101
299 3 12.0296 1.91148 9.45132
303 3 13.3909 4.22031 9.50643
321 3 15.9894 4.30215 9.63494
267 3 16.1297 1.24612 7.42889
28 1 14.3433 1.97123 13.1559
24 1 11.9026 1.62854 13.6974
29 1 14.7237 2.7777 11.8984
57 1 11.623 3.53069 13.0884
80 2 15.0963 2.40732 12.8207
7 1 15.4767 0.91909 12.3368
68 2 12.6694 2.2119 14.0884
76 2 11.2744 4.11634 12.3541
42 1 11.1038 0.317612 11.834
38 1 12.753 2.11897 15.0969
115 3 14.736 6.57766 0.960469
144 3 12.0328 6.71408 0.982058
168 3 12.0147 8.25697 3.0396
187 3 13.3849 5.8751 3.0363
192 3 14.7282 8.17626 3.07913
124 3 13.4528 9.03143 0.91775
157 3 16.0573 5.82722 3.06214
211 3 14.7115 6.64987 5.17817
240 3 11.9601 6.65096 5.24996
220 3 13.3584 8.99064 5.22034
194 3 16.0458 8.96852 5.2268
255 3 16.0559 5.88483 7.36017
289 3 16.0496 9.0241 9.36492
283 3 13.3176 5.82364 7.42992
264 3 11.9873 8.15741 7.49814
287 3 14.6982 8.20587 7.38889
336 3 12.0155 6.65475 9.51622
307 3 14.7381 6.6091 9.44777
316 3 13.4172 9.04981 9.39137
18 1 11.1225 8.15159 11.832
84 2 14.7649 6.85067 11.8835
44 1 11.5645 5.85282 12.0953
4 1 15.4885 6.3543 12.164
88 2 11.9019 6.74824 11.7175
14 1 14.964 7.71901 12.1484
48 1 12.8817 6.72974 12.0413
108 3 12.1082 11.2906 0.883861
128 3 14.7867 11.3135 0.993142
152 3 13.4147 10.5553 3.01466
156 3 14.8075 12.8876 3.05811
184 3 12.1257 12.9172 3.00802
112 3 13.3646 13.603 0.927171
170 3 16.1094 10.5315 3.06404
130 3 16.0443 13.6515 0.885985
204 3 12.0619 11.2514 5.21252
224 3 14.7679 11.3144 5.17153
208 3 13.4231 13.636 5.22682
268 3 16.0484 10.5143 7.27361
252 3 14.7834 12.9146 7.2424
280 3 12.0649 12.8708 7.29331
248 3 13.3825 10.478 7.31171
226 3 16.1277 13.6818 5.26976
304 3 13.4875 13.6191 9.40243
300 3 11.9851 11.3604 9.41658
320 3 14.7553 11.4404 9.29577
322 3 16.1273 13.7273 9.383
41 1 14.6082 12.9563 13.323
69 2 11.742 11.0257 11.7485
93 2 13.9909 13.3425 12.8614
9 1 11.4147 12.7421 11.6594
35 1 11.1391 10.132 11.8093
79 2 15.9813 11.7052 14.2897
22 1 12.5837 10.8272 12.123
61 1 14.1491 12.82 12.0815
19 1 14.9445 10.8771 12.465
75 2 14.3318 10.2085 12.2255
23 1 14.7577 9.97836 11.2662
63 1 15.8883 11.5348 15.0885
116 3 14.8195 16.0274 0.958597
143 3 12.0582 16.1153 0.896964
167 3 12.0867 17.5295 3.07436
188 3 13.4375 15.2525 3.07969
191 3 14.7995 17.5096 2.99477
123 3 13.4266 18.2444 0.89476
97 3 16.0713 18.3834 0.901816
158 3 16.0545 15.178 3.04685
212 3 14.7414 15.9623 5.202
239 3 12.009 15.916 5.19587
219 3 13.5244 18.2663 5.17378
256 3 16.1279 15.2718 7.32996
193 3 16.0448 18.2967 5.21041
284 3 13.432 15.2091 7.37362
263 3 12.0692 17.5894 7.39521
288 3 14.7404 17.4892 7.48197
335 3 12.0488 16.0062 9.46536
308 3 14.7297 15.9346 9.47529
315 3 13.4146 18.3693 9.50415
290 3 16.1186 18.3214 9.5673
71 2 14.7511 16.2481 11.8451
15 1 11.6343 16.6808 12.3072
49 1 11.146 14.3549 11.9338
3 1 15.1669 17.1418 12.1615
95 2 11.9927 15.8528 12.0761
25 1 12.8948 15.5257 12.6012
59 1 15.2351 15.4028 12.5036
86 2 11.3123 18.657 12.8073
67 2 15.858 18.6465 11.9245
