ITEM: TIMESTEP
18404000
ITEM: NUMBER OF ATOMS
336
ITEM: BOX BOUNDS pp pp pp
0.0000000000000000e+00 1.6167135238600000e+01
0.0000000000000000e+00 1.8668199539200000e+01
0.0000000000000000e+00 2.5747400283800001e+01
ITEM: ATOMS id type x y z
117 3 1.26142 1.9798 0.939097
141 3 3.98584 1.89697 0.997576
145 3 2.60006 1.29204 3.04017
165 3 4.01549 3.5532 3.05501
173 3 1.23459 3.5343 3.04576
101 3 2.67508 4.26308 1.05084
186 3 5.35839 1.16406 3.08929
121 3 5.34482 4.25909 0.956933
213 3 1.26911 2.01518 5.16692
237 3 3.94793 1.99212 5.26391
197 3 2.61331 4.24435 5.06923
217 3 5.23165 4.46358 5.23339
241 3 2.51154 1.23262 7.32267
282 3 5.32435 1.12526 7.38567
261 3 3.8367 3.61001 7.38789
269 3 1.21761 3.58627 7.42402
309 3 1.27264 2.04538 9.48203
333 3 4.04388 2.05043 9.39426
293 3 2.54651 4.37055 9.43286
313 3 5.25218 4.37343 9.439
2 1 3.14681 0.677367 12.321
11 1 4.05712 3.06277 12.4754
58 1 4.94066 1.62538 12.3755
77 2 4.07471 2.06105 12.6112
17 1 0.284643 4.44616 12.7083
105 3 3.8987 6.63216 0.954137
133 3 1.27314 6.67734 0.900738
161 3 1.26051 8.17033 3.06323
177 3 2.58616 5.87841 2.9934
181 3 4.00222 8.14469 3.03115
137 3 2.62287 8.98497 0.983181
109 3 5.31188 8.96991 0.919698
149 3 5.26469 5.91575 3.03694
98 3 0.0245884 8.91096 0.979571
245 3 5.33367 5.83547 7.32261
201 3 3.97898 6.77484 5.1914
229 3 1.28814 6.6113 5.21782
233 3 2.58823 9.03199 5.14488
273 3 2.59111 5.85935 7.27158
257 3 1.32257 8.15387 7.31344
277 3 4.04225 8.32886 7.2961
205 3 5.36612 9.00034 5.10851
297 3 3.96686 6.64384 9.46975
325 3 1.3767 6.66059 9.39944
329 3 2.57698 8.94964 9.51544
301 3 5.24687 9.03853 9.52622
40 1 5.10776 7.64609 10.5761
92 2 3.39868 8.40696 12.7563
56 1 3.01299 7.48615 12.9247
45 1 2.98911 5.33905 12.9528
55 1 3.41563 8.34809 11.6922
13 1 3.50043 5.26002 11.4956
78 2 3.8268 5.37268 12.5366
73 2 0.927974 5.22078 12.5392
32 1 1.26376 5.02885 11.4665
118 3 1.32334 11.268 0.960952
142 3 3.9651 11.3943 0.949885
146 3 2.58092 10.52 2.96418
166 3 3.99124 12.921 3.0392
174 3 1.26495 12.8386 2.99916
102 3 2.63175 13.6407 0.946987
122 3 5.31638 13.5994 0.94977
185 3 5.27034 10.5421 3.0072
214 3 1.25995 11.3827 5.24465
238 3 3.93017 11.3535 5.15186
198 3 2.68531 13.6779 5.24608
242 3 2.66769 10.5494 7.28057
270 3 1.3581 12.9114 7.33214
262 3 4.02689 12.9015 7.29487
314 3 5.30374 13.7641 9.46941
334 3 3.85044 11.3111 9.34538
310 3 1.27501 11.2963 9.47492
294 3 2.58036 13.7297 9.43068
281 3 5.35252 10.5959 7.39983
94 2 1.80087 10.5429 12.7005
5 1 2.39041 9.80569 12.8591
31 1 0.628596 11.3309 13.7753
34 1 1.90991 13.9178 13.503
62 1 1.75324 10.4435 11.6163
16 1 3.56163 11.6587 12.5383
65 2 4.27726 12.3428 12.4836
1 1 4.12727 12.8073 11.5943
50 1 1.65791 13.9869 11.878
106 3 4.04799 15.9872 0.958572
134 3 1.2187 16.0287 0.9872
162 3 1.22623 17.6181 3.06869
178 3 2.58058 15.2167 2.95765
182 3 3.9538 17.592 3.06469
138 3 2.64447 18.3236 0.932881
110 3 5.37024 18.3049 0.99076
202 3 3.97865 15.9869 5.12452
230 3 1.35396 16.0212 5.21875
234 3 2.64931 18.3243 5.17694
206 3 5.36957 18.2342 5.18573
274 3 2.58484 15.2355 7.33142
246 3 5.34587 15.1382 7.38181
258 3 1.24803 17.5806 7.43085
278 3 3.90429 17.5356 7.50276
298 3 3.91718 15.9181 9.51643
326 3 1.19015 16.0252 9.4075
330 3 2.59073 18.3322 9.54033
302 3 5.37927 18.4004 9.42503
64 1 5.10308 16.178 12.0829
70 2 3.97163 16.1203 11.8728
36 1 3.07697 17.7477 12.1255
66 2 2.60487 18.588 11.8976
6 1 3.53283 15.3406 12.1284
90 2 1.86125 14.4748 12.6217
26 1 0.704117 18.6174 11.8797
114 3 6.64053 1.92261 0.929042
135 3 9.31121 2.0375 0.938352
159 3 8.00737 1.17439 3.03195
163 3 9.3116 3.49008 3.14819
189 3 6.5899 3.40937 3.10339
100 3 8.05257 4.36186 0.997078
179 3 10.6909 1.19794 2.96414
139 3 10.659 4.19955 1.02276
196 3 8.01579 4.26423 5.22256
210 3 6.6255 1.92812 5.2332
231 3 9.40214 1.98513 5.25532
254 3 8.00555 1.21922 7.3088
286 3 6.61532 3.46544 7.34506
235 3 10.6921 4.27675 5.22393
259 3 9.38041 3.51239 7.43699
327 3 9.36131 1.99009 9.53929
306 3 6.7021 2.00846 9.46061
291 3 7.98585 4.33746 9.47966
275 3 10.7043 1.25655 7.36872
331 3 10.5732 4.39161 9.47351
47 1 7.74957 4.36446 12.7612
20 1 10.4187 4.10753 12.6356
83 2 8.51048 3.56631 12.7692
37 1 7.31584 2.17597 13.0358
33 1 7.04651 1.16072 11.8595
81 2 6.86768 1.20923 12.7379
39 1 8.65433 3.26445 11.7548
120 3 9.29479 6.59252 0.919295
125 3 6.65294 6.58866 0.960971
153 3 6.76605 8.22661 3.02119
172 3 7.96644 5.82732 3.09418
176 3 9.39463 8.21896 3.07461
132 3 7.99278 9.02499 0.885886
148 3 10.7255 5.85789 3.05342
104 3 10.7156 9.08077 1.04327
200 3 10.7294 9.00465 5.26909
228 3 8.00593 8.99094 5.30263
216 3 9.28813 6.61423 5.20413
221 3 6.66747 6.7153 5.2634
272 3 9.35936 8.13068 7.32038
296 3 10.5219 8.99898 9.49104
265 3 8.01633 5.76543 7.41325
249 3 6.66759 8.20791 7.37145
312 3 9.27909 6.69017 9.42504
317 3 6.60665 6.69888 9.39451
324 3 7.89386 9.00448 9.47663
244 3 10.6283 5.88868 7.37834
12 1 6.70577 5.66058 11.62
74 2 10.4606 8.87222 11.7611
87 2 7.95007 8.90056 11.5936
72 2 6.62485 5.98447 12.5675
60 1 7.58321 8.21617 12.0786
8 1 9.03976 8.9668 11.7578
21 1 5.6497 6.11306 12.5741
113 3 6.61209 11.3704 0.894408
136 3 9.36276 11.4035 0.983029
160 3 8.03414 10.4917 3.08427
164 3 9.39649 12.9061 2.9974
190 3 6.65049 12.8903 2.99469
99 3 7.97822 13.6536 0.875239
140 3 10.7099 13.6839 0.907713
180 3 10.7187 10.5797 3.11608
276 3 10.7436 10.5468 7.33636
209 3 6.62447 11.2898 5.24994
232 3 9.36227 11.3545 5.18204
195 3 8.0617 13.5935 5.14288
260 3 9.28015 12.7563 7.34998
236 3 10.6875 13.6259 5.12499
218 3 5.43976 13.6096 5.20946
253 3 7.95138 10.5605 7.38473
285 3 6.68585 12.8989 7.42229
305 3 6.57866 11.3866 9.50561
328 3 9.2341 11.2875 9.4181
292 3 8.16751 13.6066 9.50993
332 3 10.6539 13.61 9.36616
43 1 7.54672 12.6633 12.0636
89 2 8.06764 13.4253 11.6896
10 1 9.08444 13.3227 11.6878
30 1 6.71841 10.3205 12.0846
54 1 5.53118 11.5825 11.7611
82 2 6.57693 11.3103 11.8364
85 2 10.7172 13.5649 11.6855
119 3 9.32289 15.9735 0.884428
126 3 6.70132 16.0242 0.843619
154 3 6.69286 17.5148 3.011
171 3 8.02903 15.1936 2.98626
175 3 9.33807 17.5414 3.00606
131 3 8.01735 18.2108 0.944164
103 3 10.6412 18.2817 0.904932
147 3 10.7556 15.228 3.01596
150 3 5.40924 15.2082 3.0162
215 3 9.3882 15.9616 5.19182
222 3 6.76741 15.9442 5.22823
227 3 8.05797 18.3374 5.1893
199 3 10.6806 18.2397 5.29352
266 3 8.01867 15.1595 7.23264
243 3 10.6525 15.2297 7.36879
271 3 9.30595 17.5047 7.39933
250 3 6.63983 17.5205 7.41327
311 3 9.36161 15.9573 9.47141
318 3 6.68804 15.9126 9.48269
323 3 7.95082 18.3024 9.46662
295 3 10.7277 18.3233 9.42127
51 1 9.19218 17.5928 11.8099
52 1 7.98555 18.2502 12.466
91 2 8.54251 17.5813 12.4908
53 1 6.91494 14.9832 12.0724
96 2 6.54643 15.9122 11.8419
27 1 7.29834 16.4194 11.8524
46 1 10.3295 18.1642 13.158
107 3 12.0594 2.0343 1.00615
127 3 14.8141 2.01439 1.05843
151 3 13.4432 1.14633 3.06683
155 3 14.6439 3.53137 3.05662
183 3 12.0323 3.51359 3.14343
111 3 13.405 4.31373 1.08235
129 3 16.1014 4.25001 0.985258
169 3 16.0039 1.15275 3.12112
203 3 12.0309 1.93393 5.1797
223 3 14.7637 2.06776 5.33214
207 3 13.428 4.30297 5.22297
225 3 16.1372 4.34213 5.22732
247 3 13.4252 1.23454 7.35353
321 3 16.0118 4.30932 9.64863
251 3 14.7041 3.55561 7.39863
267 3 16.1379 1.23572 7.43222
279 3 12.005 3.45971 7.43381
299 3 12.0269 1.92314 9.42085
319 3 14.731 2.0842 9.47973
303 3 13.3874 4.2318 9.48786
28 1 14.111 2.33736 13.2511
68 2 12.673 2.15026 14.0753
24 1 12.0629 1.38127 13.6813
80 2 15.1126 2.37077 12.7011
29 1 14.9761 2.61417 11.7168
57 1 11.9813 3.66115 12.9487
42 1 11.1822 0.590447 12.0232
76 2 11.2844 4.14872 12.3408
7 1 15.412 0.911902 12.4124
38 1 12.7309 1.95753 14.9341
115 3 14.7306 6.607 0.974832
144 3 12.062 6.72114 0.954238
168 3 11.9974 8.26336 3.0506
187 3 13.345 5.88346 3.05548
192 3 14.7192 8.16949 3.10895
124 3 13.4603 9.00285 0.949952
157 3 16.0618 5.84129 3.03764
211 3 14.7005 6.66938 5.17682
240 3 11.949 6.64671 5.26208
220 3 13.3512 8.98091 5.22092
255 3 16.0629 5.88571 7.35524
194 3 16.0583 8.97144 5.27153
289 3 16.03 9.02119 9.41696
283 3 13.3205 5.81258 7.41592
264 3 11.9976 8.14564 7.51434
287 3 14.6837 8.19734 7.36125
307 3 14.7443 6.63266 9.47181
336 3 12.0174 6.65138 9.53494
316 3 13.4363 9.04334 9.37287
18 1 10.7896 8.02013 11.9253
84 2 14.7153 6.87808 11.9393
14 1 15.0899 7.77773 12.1983
88 2 11.9685 6.70452 11.7633
48 1 12.7753 6.7591 12.1265
44 1 11.6229 5.81228 11.9252
4 1 15.2761 6.03156 12.1218
108 3 12.1126 11.2385 0.882291
128 3 14.7341 11.2843 0.980137
152 3 13.4694 10.5798 3.00315
156 3 14.8081 12.875 3.03473
184 3 12.1364 12.9114 3.04772
112 3 13.36 13.5873 0.911129
170 3 16.1619 10.5245 3.05594
130 3 16.0176 13.6883 0.902034
204 3 12.0592 11.2446 5.21806
224 3 14.8078 11.3603 5.14136
208 3 13.435 13.6612 5.19674
252 3 14.7808 12.899 7.24857
280 3 12.0409 12.8663 7.30133
268 3 16.0214 10.5087 7.24174
248 3 13.4152 10.4595 7.26342
226 3 16.1189 13.6915 5.26371
320 3 14.7668 11.4539 9.29014
300 3 11.9935 11.3532 9.4347
304 3 13.4679 13.6549 9.39
322 3 16.0961 13.7295 9.38309
93 2 13.973 13.3411 12.8346
75 2 14.3433 10.1895 12.2113
35 1 11.3048 10.1052 11.7781
61 1 14.0869 13.0503 11.8844
69 2 11.7156 11.0074 11.7385
22 1 12.6639 10.7688 12.0559
9 1 11.494 12.9891 11.5377
19 1 14.8842 10.8411 12.6298
79 2 16.0075 11.6873 14.3013
41 1 14.7809 12.9202 13.4026
23 1 14.77 9.97492 11.2895
63 1 15.8321 11.2048 15.1101
116 3 14.833 16.0229 0.947546
143 3 12.0536 16.1187 0.90222
167 3 12.0789 17.5304 3.0782
188 3 13.4231 15.2364 3.07014
191 3 14.8398 17.5107 2.99993
123 3 13.3966 18.2452 0.901227
97 3 16.0873 18.3501 0.918179
158 3 16.0699 15.1455 3.02747
193 3 16.0573 18.2859 5.23424
212 3 14.6991 15.9682 5.17944
239 3 12.0324 15.9305 5.21742
219 3 13.5123 18.2833 5.14805
284 3 13.4369 15.2178 7.33808
256 3 16.1448 15.2558 7.35129
263 3 12.101 17.5791 7.36559
288 3 14.7575 17.516 7.47628
335 3 12.0801 16.0356 9.46097
308 3 14.7471 15.9173 9.47841
315 3 13.4012 18.3726 9.49881
290 3 16.1372 18.3269 9.54327
71 2 14.735 16.2332 11.8374
3 1 15.2382 17.0723 11.9431
67 2 15.8255 18.6117 11.9378
25 1 12.9045 15.94 12.2047
49 1 11.198 14.2216 11.9453
59 1 15.0292 15.4614 12.3459
15 1 11.6309 16.8448 12.4184
95 2 11.9188 15.8315 12.0134
86 2 11.365 18.5772 12.7938
