ITEM: TIMESTEP
18404000
ITEM: NUMBER OF ATOMS
336
ITEM: BOX BOUNDS pp pp pp
0.0000000000000000e+00 1.6167135238600000e+01
0.0000000000000000e+00 1.8668199539200000e+01
0.0000000000000000e+00 2.5747400283800001e+01
ITEM: ATOMS id type x y z
117 3 1.25517 1.97821 0.933445
141 3 3.99166 1.88917 0.999763
145 3 2.60344 1.29848 3.02919
165 3 4.01523 3.5609 3.05228
173 3 1.23544 3.52739 3.03818
101 3 2.67402 4.27017 1.05637
121 3 5.34601 4.25061 0.950793
186 3 5.36581 1.16315 3.08031
213 3 1.26444 2.0226 5.16263
237 3 3.94758 1.99867 5.25575
197 3 2.61017 4.24137 5.07016
217 3 5.22337 4.46338 5.23616
241 3 2.51145 1.23372 7.32037
282 3 5.31904 1.12333 7.37053
261 3 3.83637 3.60716 7.38012
269 3 1.21769 3.57981 7.42451
309 3 1.27924 2.05253 9.48297
333 3 4.04643 2.05814 9.39391
293 3 2.55435 4.36952 9.42645
313 3 5.25281 4.37685 9.43551
58 1 4.99917 1.63317 12.3745
77 2 4.06204 2.02407 12.6121
11 1 4.04475 3.0399 12.5188
2 1 3.16414 0.66682 12.322
17 1 0.340021 4.40443 12.6617
26 1 0.705778 0.0676664 11.873
105 3 3.89012 6.62236 0.952686
133 3 1.27258 6.67152 0.897975
161 3 1.26059 8.18455 3.05683
177 3 2.57756 5.87514 2.98825
181 3 3.99996 8.15123 3.04438
137 3 2.63841 8.9989 0.983332
109 3 5.29922 8.96423 0.912855
149 3 5.26633 5.91323 3.03834
98 3 0.0116203 8.91664 0.997842
205 3 5.3721 9.00222 5.11335
201 3 3.9799 6.7777 5.19353
229 3 1.28899 6.61529 5.2193
233 3 2.59183 9.02837 5.1428
245 3 5.3169 5.83464 7.32427
273 3 2.59082 5.86194 7.2657
257 3 1.33819 8.16238 7.31207
277 3 4.03396 8.33124 7.29557
301 3 5.24564 9.02933 9.51873
329 3 2.57685 8.95287 9.51885
325 3 1.37139 6.65249 9.39283
297 3 3.96955 6.64098 9.46848
40 1 5.03287 7.74519 10.5473
55 1 3.26919 8.35254 11.6595
78 2 3.81703 5.35378 12.5304
92 2 3.40344 8.41708 12.7342
56 1 3.08392 7.50633 12.9179
45 1 3.11703 5.40699 12.9933
13 1 3.55127 5.26167 11.5325
32 1 1.35297 5.14639 11.4582
73 2 0.931477 5.22349 12.5531
118 3 1.31886 11.2693 0.953286
142 3 3.96551 11.3917 0.948234
146 3 2.59639 10.5068 2.9533
166 3 3.98069 12.9188 3.04604
174 3 1.26134 12.837 3.00213
102 3 2.64524 13.6428 0.943261
122 3 5.31177 13.5885 0.946938
185 3 5.26958 10.5306 3.00869
214 3 1.27903 11.3785 5.24268
238 3 3.93338 11.3588 5.15733
198 3 2.68266 13.6739 5.243
242 3 2.65936 10.5595 7.27226
262 3 4.02013 12.902 7.29682
270 3 1.34622 12.919 7.33776
314 3 5.29958 13.7651 9.46335
310 3 1.27535 11.3059 9.45525
334 3 3.85132 11.3113 9.34506
294 3 2.58485 13.7335 9.42462
281 3 5.34216 10.6031 7.40231
94 2 1.7871 10.5405 12.6888
31 1 0.582375 11.3665 13.7013
16 1 3.60439 11.6746 12.6455
62 1 1.76368 10.427 11.7218
5 1 2.45196 9.75977 12.8284
1 1 4.11375 12.6781 11.6077
65 2 4.29006 12.3295 12.4606
34 1 1.89835 13.8037 13.4403
50 1 1.65623 13.9267 11.8781
106 3 4.05325 15.9849 0.962238
134 3 1.22169 16.0363 0.986772
162 3 1.22567 17.6313 3.06114
178 3 2.57051 15.2215 2.95664
182 3 3.94574 17.5943 3.06273
138 3 2.63419 18.3263 0.917243
110 3 5.37479 18.2995 0.997358
202 3 3.98618 15.9889 5.13898
230 3 1.36532 16.0096 5.21323
234 3 2.64808 18.3228 5.17366
206 3 5.36937 18.2378 5.19632
274 3 2.59555 15.2353 7.33686
258 3 1.25672 17.5793 7.42837
278 3 3.90578 17.5213 7.51122
298 3 3.92397 15.916 9.50259
326 3 1.19474 16.0106 9.40454
330 3 2.59413 18.3398 9.53346
246 3 5.34973 15.1357 7.38182
64 1 5.05947 16.1299 12.0866
6 1 3.54167 15.4329 12.217
90 2 1.85414 14.5138 12.6255
36 1 3.01959 17.8587 12.0709
66 2 2.58875 18.5765 11.8702
70 2 3.99945 16.158 11.866
114 3 6.6442 1.93355 0.937265
135 3 9.30646 2.03409 0.943832
159 3 8.00654 1.17471 3.01034
163 3 9.31404 3.48315 3.14987
189 3 6.59539 3.4138 3.10354
100 3 8.05391 4.3567 0.996103
139 3 10.668 4.19613 1.01884
179 3 10.6914 1.19213 2.9659
196 3 8.00575 4.2678 5.21421
210 3 6.62479 1.92969 5.24145
231 3 9.39247 1.97228 5.25966
235 3 10.6902 4.28262 5.23332
254 3 8.00171 1.22978 7.3128
286 3 6.61298 3.47516 7.33776
331 3 10.5728 4.39602 9.47209
259 3 9.37902 3.49694 7.44225
306 3 6.70331 2.01108 9.45323
327 3 9.36448 2.0019 9.54328
291 3 7.99974 4.34296 9.46654
275 3 10.6985 1.25195 7.36037
20 1 10.3242 4.025 12.5712
33 1 7.18517 1.23609 11.9077
37 1 7.36 2.14459 12.9554
47 1 7.74902 4.36574 12.8672
39 1 8.67701 3.19823 11.8106
81 2 6.87391 1.20667 12.7348
83 2 8.49167 3.56946 12.7644
120 3 9.2899 6.60309 0.926069
125 3 6.6558 6.58615 0.960342
153 3 6.77049 8.21833 3.02426
172 3 7.96578 5.82853 3.08891
176 3 9.39323 8.22339 3.08388
132 3 7.98455 9.02656 0.887627
148 3 10.7284 5.86622 3.05348
104 3 10.7142 9.09221 1.04242
216 3 9.29521 6.61777 5.20835
221 3 6.65753 6.71528 5.25693
228 3 8.00111 8.98526 5.29798
200 3 10.7275 8.99765 5.26346
272 3 9.37396 8.1297 7.31864
296 3 10.5193 8.99206 9.4931
265 3 8.0171 5.75938 7.41203
249 3 6.66858 8.21678 7.37923
317 3 6.61151 6.68679 9.39051
312 3 9.27796 6.68751 9.42662
324 3 7.88668 9.01742 9.47228
244 3 10.6218 5.88512 7.37877
72 2 6.60508 5.98247 12.5853
74 2 10.4572 8.89983 11.7748
8 1 9.26985 8.87832 11.7288
12 1 6.66985 5.72175 11.5929
21 1 5.53257 6.08079 12.6684
60 1 7.57651 8.25079 12.0279
87 2 7.95019 8.90175 11.6
113 3 6.61369 11.3745 0.875886
136 3 9.36866 11.4076 0.986079
160 3 8.03302 10.4965 3.08278
164 3 9.39829 12.9129 2.99719
190 3 6.65021 12.8998 3.01041
99 3 7.98867 13.6512 0.880904
140 3 10.7002 13.684 0.894645
180 3 10.7185 10.5707 3.10424
276 3 10.7414 10.5567 7.349
209 3 6.62108 11.2959 5.24147
232 3 9.36984 11.36 5.18631
195 3 8.0591 13.5813 5.14281
260 3 9.28081 12.7546 7.34659
236 3 10.6818 13.6316 5.11773
218 3 5.43878 13.5931 5.21592
253 3 7.95403 10.5637 7.3843
285 3 6.68765 12.8946 7.437
328 3 9.24506 11.2824 9.40853
305 3 6.57165 11.3869 9.51636
292 3 8.17378 13.603 9.49727
332 3 10.6464 13.6117 9.36334
43 1 7.46793 12.7396 12.0845
89 2 8.06082 13.4579 11.7009
82 2 6.57385 11.262 11.8378
54 1 5.52961 11.6226 11.8287
10 1 9.14332 13.2968 11.7754
30 1 6.67131 10.2172 12.1633
85 2 10.7161 13.5602 11.6773
119 3 9.32316 15.9616 0.897115
126 3 6.68844 16.0298 0.827932
154 3 6.69504 17.5038 3.02132
171 3 8.03183 15.1951 2.99926
175 3 9.335 17.5554 3.00871
131 3 8.01873 18.2023 0.944294
103 3 10.6406 18.2858 0.910527
147 3 10.7455 15.2334 3.0133
150 3 5.41634 15.216 3.01792
215 3 9.40009 15.9688 5.1997
222 3 6.76942 15.9485 5.23136
227 3 8.05613 18.3474 5.18144
199 3 10.6854 18.237 5.29383
266 3 8.02206 15.149 7.22542
243 3 10.6563 15.2312 7.36599
250 3 6.6465 17.5285 7.41272
271 3 9.29889 17.4979 7.39601
311 3 9.36781 15.9492 9.47552
318 3 6.68766 15.9037 9.47961
323 3 7.94702 18.3115 9.46241
295 3 10.7174 18.3376 9.41147
302 3 5.3893 18.3951 9.43442
52 1 7.88327 18.2935 12.4016
51 1 9.12463 17.619 11.673
91 2 8.52477 17.5433 12.5086
27 1 7.37419 16.417 11.9386
96 2 6.53879 15.9326 11.8364
53 1 6.87135 14.962 12.0349
46 1 10.3474 18.1726 13.0602
107 3 12.0593 2.04136 1.01351
127 3 14.8107 2.01318 1.05732
151 3 13.4511 1.13693 3.05416
155 3 14.6465 3.53636 3.05479
183 3 12.0289 3.51605 3.1386
111 3 13.4168 4.31702 1.06878
129 3 16.0903 4.2535 0.99323
169 3 16.0063 1.16068 3.11091
203 3 12.0265 1.92802 5.17933
223 3 14.7521 2.07862 5.33408
207 3 13.4244 4.3045 5.23007
225 3 16.1172 4.34071 5.22149
321 3 15.9896 4.30379 9.64364
251 3 14.7144 3.55007 7.40108
267 3 16.1475 1.24197 7.43483
279 3 12 3.45102 7.42154
247 3 13.4183 1.22751 7.36053
299 3 12.0243 1.92507 9.42051
319 3 14.7284 2.09165 9.4874
303 3 13.3779 4.2301 9.49313
76 2 11.2749 4.18051 12.3291
29 1 14.9106 2.58509 11.7055
68 2 12.6628 2.18134 14.0726
80 2 15.122 2.41933 12.7008
7 1 15.5137 0.861295 12.4086
24 1 11.9995 1.35801 13.7999
28 1 14.0832 2.30982 13.0974
57 1 11.9373 3.74635 12.8547
42 1 11.1936 0.549248 12.1322
38 1 12.6477 1.83015 14.9445
115 3 14.7245 6.60431 0.975645
144 3 12.0532 6.71559 0.9506
168 3 12.0058 8.27002 3.05676
187 3 13.3517 5.86938 3.06321
192 3 14.7092 8.1808 3.11753
124 3 13.4583 9.0117 0.935269
157 3 16.0465 5.83972 3.0311
211 3 14.7055 6.67391 5.17824
240 3 11.9479 6.64787 5.27266
220 3 13.3431 8.97146 5.23312
194 3 16.0642 8.97085 5.26962
255 3 16.0701 5.88585 7.36023
283 3 13.3289 5.82043 7.41136
264 3 11.991 8.14693 7.5054
287 3 14.6909 8.19748 7.37921
307 3 14.7494 6.62496 9.46664
336 3 12.0283 6.65405 9.52397
316 3 13.4149 9.04633 9.37955
289 3 16.0341 9.01298 9.41143
18 1 10.813 7.96928 11.8722
84 2 14.7262 6.915 11.9073
4 1 15.3066 6.0457 12.1304
88 2 11.9415 6.72554 11.7625
48 1 12.7096 6.69775 12.1536
14 1 15.0183 7.81674 12.1226
44 1 11.6528 5.836 11.9749
108 3 12.1128 11.245 0.883839
128 3 14.7191 11.2996 0.985428
152 3 13.4756 10.5836 2.99951
156 3 14.8093 12.8786 3.03113
184 3 12.1298 12.9113 3.05049
112 3 13.3633 13.5888 0.914833
170 3 16.1617 10.5306 3.05918
130 3 16.0314 13.6924 0.904697
204 3 12.0524 11.2393 5.22255
224 3 14.8134 11.3558 5.14416
208 3 13.4339 13.6675 5.19606
268 3 16.0203 10.5119 7.24467
252 3 14.781 12.8962 7.25234
280 3 12.0517 12.8756 7.29881
248 3 13.4128 10.4475 7.27385
226 3 16.1266 13.6919 5.26415
300 3 11.9934 11.355 9.43242
320 3 14.7686 11.4587 9.28952
304 3 13.4732 13.653 9.40024
322 3 16.0897 13.7167 9.38312
75 2 14.3191 10.1809 12.2192
61 1 14.1858 12.9124 11.9208
9 1 11.3433 12.9145 11.6328
79 2 16.003 11.6855 14.2647
93 2 13.9774 13.3249 12.8184
35 1 11.3883 10.1792 11.8613
69 2 11.7071 11.0214 11.7347
22 1 12.6112 10.736 11.9941
41 1 14.8394 12.982 13.3706
19 1 14.8164 10.7684 12.5706
23 1 14.7411 10.1005 11.25
63 1 15.8523 11.2297 15.1214
116 3 14.8339 16.033 0.950236
143 3 12.045 16.11 0.902637
167 3 12.086 17.5222 3.08005
188 3 13.4186 15.2425 3.06547
191 3 14.8307 17.5196 2.99625
123 3 13.3916 18.2553 0.899619
97 3 16.0805 18.3528 0.923371
158 3 16.069 15.1448 3.03021
212 3 14.6928 15.9817 5.18227
239 3 12.0275 15.9233 5.20465
219 3 13.506 18.2829 5.14523
284 3 13.4225 15.2075 7.34601
256 3 16.1295 15.2685 7.34536
193 3 16.0537 18.2863 5.23732
288 3 14.7529 17.516 7.47195
263 3 12.1079 17.5798 7.36893
335 3 12.0788 16.0434 9.46618
308 3 14.7556 15.9202 9.47988
315 3 13.3971 18.3787 9.51293
290 3 16.122 18.3387 9.53841
71 2 14.7504 16.23 11.8366
49 1 11.226 14.2766 11.8437
95 2 11.9265 15.8243 12.0332
3 1 15.244 17.0615 12.0438
25 1 12.9291 15.8478 12.1115
59 1 14.9673 15.4916 12.4113
15 1 11.714 16.6923 12.4817
86 2 11.3901 18.5723 12.8027
67 2 15.8369 18.6138 11.9616
