ITEM: TIMESTEP
18404000
ITEM: NUMBER OF ATOMS
336
ITEM: BOX BOUNDS pp pp pp
0.0000000000000000e+00 1.6167135238600000e+01
0.0000000000000000e+00 1.8668199539200000e+01
0.0000000000000000e+00 2.5747400283800001e+01
ITEM: ATOMS id type x y z
117 3 1.24525 1.96465 0.943317
141 3 3.99866 1.89031 0.985631
145 3 2.62544 1.28615 3.02774
165 3 4.03455 3.55793 3.06553
173 3 1.23438 3.5271 3.05443
101 3 2.66329 4.27333 1.0388
186 3 5.35366 1.15048 3.0744
121 3 5.32738 4.24394 0.96202
213 3 1.25741 2.02608 5.15077
237 3 3.95357 2.01066 5.26567
197 3 2.6006 4.22931 5.07148
217 3 5.24177 4.46165 5.22413
241 3 2.51083 1.25429 7.32613
282 3 5.32399 1.12096 7.38578
261 3 3.82706 3.608 7.37111
269 3 1.20741 3.58169 7.4176
309 3 1.28424 2.03472 9.48299
333 3 4.04065 2.05036 9.37182
293 3 2.5444 4.36431 9.42076
313 3 5.23578 4.36466 9.41591
11 1 3.95249 2.93939 12.7289
77 2 4.04896 2.03858 12.6111
2 1 2.94315 0.622529 12.3824
58 1 4.97654 1.71649 12.4696
17 1 0.191786 4.48769 12.5479
26 1 0.604327 0.210076 11.8417
105 3 3.89951 6.61844 0.946149
133 3 1.27636 6.66771 0.859258
161 3 1.27595 8.18504 3.04061
177 3 2.58067 5.90217 2.98801
181 3 3.9867 8.15618 3.03951
137 3 2.64373 8.97316 0.998331
109 3 5.30486 8.96689 0.873128
149 3 5.26588 5.90909 3.05826
201 3 3.98558 6.77966 5.17593
229 3 1.29987 6.61884 5.2066
233 3 2.58509 9.04282 5.13349
277 3 4.02774 8.33037 7.3028
273 3 2.60324 5.87732 7.26783
257 3 1.33181 8.17114 7.31734
245 3 5.3393 5.83968 7.31949
205 3 5.36726 9.03139 5.11236
325 3 1.37912 6.64596 9.39477
297 3 3.97154 6.62306 9.45532
329 3 2.55762 8.94711 9.50545
301 3 5.27037 9.02915 9.53152
56 1 3.21684 7.44636 13.1153
55 1 3.30125 8.48103 11.8213
45 1 3.033 5.54359 12.9687
13 1 3.43448 5.16655 11.675
78 2 3.8016 5.35362 12.5649
92 2 3.43411 8.40252 12.8393
73 2 0.894118 5.25798 12.545
32 1 1.422 5.12651 11.3985
118 3 1.31132 11.2836 0.945582
142 3 3.99534 11.4055 0.947186
146 3 2.57411 10.5161 2.94116
166 3 3.99954 12.9073 3.05143
174 3 1.26706 12.8347 3.0044
102 3 2.62375 13.6323 0.940235
122 3 5.33111 13.5977 0.9371
185 3 5.27075 10.541 3.01655
214 3 1.25527 11.3827 5.26286
238 3 3.92131 11.3389 5.16038
198 3 2.70645 13.6845 5.23839
242 3 2.67401 10.5546 7.24158
262 3 4.02313 12.9009 7.29416
270 3 1.3414 12.9207 7.34887
334 3 3.83844 11.312 9.34636
310 3 1.29023 11.3246 9.45309
294 3 2.60307 13.7528 9.41628
314 3 5.31397 13.7688 9.46586
281 3 5.34618 10.5956 7.39328
65 2 4.25214 12.3312 12.4303
5 1 2.46107 9.87916 12.9312
31 1 0.744353 11.1814 13.7362
34 1 2.18812 13.8753 13.2675
62 1 1.65703 10.5379 11.7792
1 1 4.16232 12.5944 11.4259
16 1 3.63649 11.5469 12.6256
94 2 1.80697 10.5159 12.7236
106 3 4.03457 16.0035 0.954572
134 3 1.24455 16.0506 0.989854
162 3 1.22039 17.6326 3.05902
178 3 2.57291 15.2087 2.9601
182 3 3.93568 17.5911 3.07736
138 3 2.63367 18.3107 0.909118
110 3 5.36454 18.3134 1.00154
150 3 5.38639 15.2206 3.0045
202 3 3.97836 15.9526 5.13352
230 3 1.36327 16.0092 5.21159
234 3 2.65312 18.319 5.17811
206 3 5.34722 18.2492 5.21123
274 3 2.60998 15.2021 7.3372
258 3 1.24708 17.5903 7.42841
278 3 3.90153 17.54 7.50015
326 3 1.20621 16.0202 9.40768
298 3 3.90867 15.9215 9.48622
330 3 2.58598 18.3217 9.54801
246 3 5.34678 15.1495 7.38229
302 3 5.38486 18.3796 9.43415
6 1 3.57656 15.307 12.1354
36 1 3.15582 17.9243 12.1099
90 2 1.88204 14.5224 12.6516
66 2 2.63765 18.6328 11.8505
64 1 4.92738 16.137 11.8734
70 2 3.96857 16.1126 11.8161
50 1 1.61823 14.1763 11.814
114 3 6.65312 1.93992 0.929708
135 3 9.31224 2.01701 0.959637
159 3 7.99401 1.19163 3.00984
163 3 9.31891 3.48697 3.15279
189 3 6.59081 3.42163 3.11197
100 3 8.06357 4.36057 1.01767
179 3 10.6723 1.20914 2.97635
139 3 10.6723 4.20362 1.00914
196 3 8.00615 4.26627 5.20681
210 3 6.6595 1.92936 5.22734
231 3 9.39889 1.97593 5.25785
286 3 6.60397 3.47409 7.33813
254 3 8.00692 1.2052 7.32602
235 3 10.701 4.30137 5.21285
259 3 9.35464 3.51088 7.42994
327 3 9.37893 2.00555 9.54998
306 3 6.71681 1.98899 9.4578
291 3 8.00285 4.33258 9.48868
275 3 10.71 1.23445 7.35666
331 3 10.5682 4.39318 9.4586
47 1 7.78426 4.26533 12.9334
20 1 10.3806 3.86583 12.4871
37 1 7.35651 2.03352 13.0427
81 2 6.9165 1.19572 12.7765
33 1 7.15762 1.24107 11.999
39 1 8.73189 3.31064 11.8729
83 2 8.45359 3.49931 12.7827
120 3 9.28275 6.60752 0.912094
125 3 6.64939 6.60194 0.946729
153 3 6.78822 8.2168 3.02783
172 3 7.95947 5.81581 3.06841
176 3 9.37364 8.20545 3.0903
132 3 7.97047 9.03324 0.890948
148 3 10.7317 5.84126 3.05167
104 3 10.7225 9.0777 1.02405
200 3 10.7338 8.99195 5.29183
216 3 9.29667 6.61047 5.19961
221 3 6.66321 6.71983 5.2451
228 3 8.00114 8.99344 5.30713
272 3 9.35649 8.15088 7.33356
296 3 10.5423 8.99883 9.49696
265 3 8.04167 5.77956 7.40004
244 3 10.6153 5.90024 7.37595
249 3 6.65953 8.23281 7.36406
312 3 9.29278 6.69666 9.43642
317 3 6.6027 6.68905 9.38613
324 3 7.90703 9.02185 9.48823
40 1 5.39637 7.47308 10.4027
60 1 7.51842 8.26192 12.0025
74 2 10.4596 8.89768 11.7155
8 1 9.05514 8.81131 11.724
72 2 6.6103 6.02131 12.5816
87 2 7.93168 8.90604 11.6182
12 1 6.82121 5.68648 11.6086
21 1 5.61158 6.23643 12.6366
18 1 10.7488 7.95955 11.7411
113 3 6.61127 11.3919 0.882441
136 3 9.37599 11.4226 0.994196
160 3 8.05733 10.5059 3.07085
164 3 9.40853 12.9073 2.9961
190 3 6.67177 12.8757 2.9948
99 3 8.02051 13.6369 0.871685
140 3 10.7064 13.6974 0.909821
180 3 10.7231 10.5742 3.0978
209 3 6.63613 11.3035 5.21114
232 3 9.34658 11.3584 5.19251
195 3 8.05185 13.5892 5.16426
260 3 9.2899 12.7668 7.32781
236 3 10.673 13.6064 5.12435
218 3 5.41362 13.5914 5.20721
332 3 10.6472 13.6184 9.37398
253 3 7.94728 10.5694 7.39071
285 3 6.69612 12.8971 7.46124
276 3 10.7208 10.56 7.3696
328 3 9.25541 11.2915 9.411
305 3 6.58508 11.3749 9.50418
292 3 8.17265 13.6156 9.50445
89 2 8.0346 13.4916 11.6798
43 1 7.46091 12.6045 12.0927
54 1 5.5918 11.4444 12.061
30 1 6.73817 10.3564 12.2273
82 2 6.60744 11.2573 11.8432
10 1 9.10634 13.3207 12.1208
85 2 10.6849 13.5415 11.7231
119 3 9.32203 15.9993 0.900326
126 3 6.68291 16.0409 0.850326
154 3 6.69183 17.5055 3.03207
171 3 8.01859 15.1901 3.00761
175 3 9.3823 17.5549 3.01394
131 3 8.02782 18.193 0.929326
103 3 10.6122 18.3006 0.90798
147 3 10.7341 15.2436 3.01424
215 3 9.38361 15.9754 5.20894
222 3 6.74462 15.9452 5.20743
227 3 8.03558 18.3348 5.18607
199 3 10.6772 18.2468 5.30094
266 3 8.01727 15.1558 7.21172
243 3 10.6502 15.2173 7.37647
250 3 6.6297 17.5057 7.39804
271 3 9.2994 17.5278 7.40367
318 3 6.6766 15.9062 9.47001
311 3 9.37377 15.9492 9.45693
323 3 7.95153 18.3291 9.47763
295 3 10.7357 18.3203 9.40537
51 1 9.31754 17.6755 11.7577
52 1 7.90359 18.399 12.6781
96 2 6.58414 15.8867 11.7982
53 1 6.9365 15.1589 12.3874
91 2 8.45234 17.5406 12.5069
27 1 7.2378 16.5625 12.026
46 1 10.5299 18.2154 13.2575
107 3 12.0608 2.02425 1.03109
127 3 14.809 2.01287 1.06173
151 3 13.4233 1.14792 3.06536
155 3 14.6446 3.53119 3.04222
183 3 12.0203 3.50831 3.11913
111 3 13.4277 4.32369 1.05768
129 3 16.0799 4.24416 1.00738
169 3 15.9968 1.1555 3.11074
203 3 12.0272 1.93767 5.1612
223 3 14.7592 2.05949 5.32487
207 3 13.4055 4.31601 5.24318
247 3 13.4195 1.22603 7.3525
225 3 16.1309 4.34841 5.21837
267 3 16.1379 1.22768 7.45236
251 3 14.7179 3.53846 7.40153
321 3 15.9829 4.29659 9.61828
279 3 11.9913 3.45148 7.43415
299 3 12.0249 1.91338 9.42945
319 3 14.7327 2.09857 9.48483
303 3 13.386 4.23268 9.49778
7 1 15.4559 0.826764 12.3084
80 2 15.1353 2.44154 12.7488
28 1 14.0623 2.27695 13.1261
76 2 11.3242 4.16832 12.3539
57 1 11.8356 3.51963 12.9523
68 2 12.679 2.13937 14.0411
24 1 12.0733 1.37018 13.6125
29 1 14.9934 2.67022 11.6985
42 1 11.1152 0.535772 12.0716
67 2 15.747 0.0179545 11.9243
38 1 12.7462 1.98546 15.0284
115 3 14.7107 6.62632 0.974585
144 3 12.0584 6.69546 0.941985
168 3 12.0247 8.25203 3.05546
187 3 13.3637 5.859 3.0597
192 3 14.7229 8.18545 3.13837
124 3 13.442 9.01342 0.92006
157 3 16.0641 5.85956 3.03293
98 3 16.1671 8.89907 0.982245
211 3 14.7417 6.6681 5.17634
240 3 11.9456 6.63495 5.27489
220 3 13.3429 8.96803 5.21625
255 3 16.0784 5.86747 7.35398
194 3 16.0499 8.98244 5.26016
283 3 13.3298 5.79769 7.3984
289 3 16.0677 9.0488 9.39478
264 3 11.9969 8.13515 7.51124
287 3 14.6979 8.21068 7.37565
336 3 12.0445 6.65815 9.53088
307 3 14.7297 6.61877 9.44779
316 3 13.4166 9.07962 9.39952
88 2 11.9182 6.74705 11.7804
84 2 14.7357 6.88634 11.8912
14 1 14.9354 7.88709 11.9837
4 1 15.5539 6.26094 12.4102
44 1 11.7051 5.79169 11.8609
48 1 12.7976 6.99159 12.1489
108 3 12.101 11.2386 0.907417
128 3 14.7231 11.3143 0.988812
152 3 13.4818 10.5804 2.9972
156 3 14.8272 12.8789 3.03031
184 3 12.1283 12.929 3.05889
112 3 13.3555 13.6001 0.911605
170 3 16.1403 10.5273 3.07244
130 3 16.0429 13.6752 0.900988
204 3 12.0358 11.2093 5.21856
224 3 14.8333 11.3389 5.15071
208 3 13.4139 13.6732 5.19611
280 3 12.046 12.8721 7.27677
252 3 14.7721 12.9109 7.24187
248 3 13.4122 10.4716 7.27311
268 3 16.0158 10.5108 7.25753
226 3 16.1207 13.7022 5.27288
322 3 16.1016 13.7249 9.36183
320 3 14.7578 11.4582 9.29072
300 3 11.9795 11.3495 9.42015
304 3 13.4658 13.6366 9.41218
93 2 13.9674 13.3242 12.8637
79 2 16.01 11.693 14.2793
69 2 11.7792 11.0097 11.7168
22 1 12.6335 10.7055 12.0266
9 1 11.4442 12.8048 11.6046
19 1 14.9206 10.7471 12.7251
35 1 11.2592 9.97685 11.7533
41 1 14.7136 12.9757 13.4645
61 1 14.0918 12.9896 12.0007
75 2 14.3353 10.1796 12.2511
23 1 14.5225 9.98798 11.2893
63 1 15.9537 11.2435 15.241
116 3 14.849 16.019 0.956962
143 3 12.0632 16.1283 0.888984
167 3 12.0912 17.5151 3.07078
188 3 13.4168 15.2432 3.03065
191 3 14.8197 17.5122 2.99333
123 3 13.4007 18.279 0.904817
97 3 16.0785 18.354 0.926694
158 3 16.0762 15.1712 3.01501
212 3 14.6846 15.9795 5.21305
239 3 11.9971 15.9312 5.22446
219 3 13.4939 18.2746 5.15624
284 3 13.4261 15.1857 7.34611
256 3 16.1514 15.2677 7.33565
193 3 16.0646 18.2856 5.2151
263 3 12.0927 17.552 7.37914
288 3 14.7558 17.4823 7.46208
335 3 12.0734 16.0179 9.46799
308 3 14.7515 15.9312 9.4887
315 3 13.4098 18.3446 9.53868
290 3 16.1232 18.3454 9.55629
3 1 15.287 17.0387 11.989
86 2 11.3394 18.5483 12.74
15 1 11.6299 16.7497 12.35
49 1 11.3324 14.3642 12.009
71 2 14.7277 16.2621 11.8539
25 1 12.9393 15.7302 12.0852
59 1 15.0732 15.3887 12.6378
95 2 11.9164 15.8808 12.0564
