ITEM: TIMESTEP
18404000
ITEM: NUMBER OF ATOMS
336
ITEM: BOX BOUNDS pp pp pp
0.0000000000000000e+00 1.6167135238600000e+01
0.0000000000000000e+00 1.8668199539200000e+01
0.0000000000000000e+00 2.5747400283800001e+01
ITEM: ATOMS id type x y z
117 3 1.27121 1.96043 0.918877
141 3 4.0084 1.89679 1.01347
145 3 2.61473 1.26307 3.04196
165 3 4.02492 3.53588 3.05332
173 3 1.23719 3.53086 3.0438
101 3 2.65216 4.2674 1.05209
186 3 5.34756 1.18024 3.07645
121 3 5.33348 4.23435 0.97034
197 3 2.60903 4.24219 5.04167
213 3 1.2924 2.01315 5.12308
237 3 3.97011 2.00162 5.26995
217 3 5.24005 4.49352 5.2477
241 3 2.51214 1.24696 7.30952
282 3 5.34506 1.10647 7.36544
261 3 3.87665 3.60246 7.37065
269 3 1.20968 3.57099 7.4279
333 3 4.06877 2.03259 9.37948
309 3 1.28073 2.04137 9.47041
293 3 2.55067 4.382 9.42199
313 3 5.24277 4.38434 9.43931
11 1 3.94624 2.96887 12.625
77 2 4.08548 2.11168 12.6259
2 1 3.16206 0.741392 12.3812
58 1 4.90578 1.70249 12.3029
17 1 0.501062 4.28156 12.7187
26 1 0.888703 0.074378 12.0393
105 3 3.925 6.59457 0.92932
133 3 1.27422 6.63915 0.883124
161 3 1.27905 8.17845 3.04193
177 3 2.57944 5.87856 2.96587
181 3 4.0114 8.16343 3.00971
137 3 2.61696 8.97912 0.993135
109 3 5.27984 8.97275 0.882526
149 3 5.26231 5.91979 3.04758
245 3 5.33125 5.84876 7.32173
201 3 3.99895 6.76428 5.1837
229 3 1.30525 6.63189 5.1515
233 3 2.57057 9.00138 5.13811
277 3 4.03696 8.32484 7.29008
273 3 2.60133 5.87224 7.27797
257 3 1.34133 8.18832 7.33011
205 3 5.36311 9.0401 5.11402
301 3 5.27642 9.06466 9.49933
325 3 1.35949 6.64681 9.38995
297 3 3.96044 6.6172 9.47182
329 3 2.56686 8.98097 9.50597
40 1 5.08083 7.34986 10.3624
73 2 0.958537 5.13097 12.5708
55 1 3.58852 8.51639 11.7054
56 1 2.98103 7.49388 12.5877
45 1 3.12104 5.25548 13.1791
13 1 3.58756 5.10735 11.5017
78 2 3.76132 5.30457 12.5015
92 2 3.43933 8.41112 12.7936
32 1 1.05292 5.06531 11.5867
118 3 1.31962 11.2802 0.952458
142 3 4.00374 11.4142 0.939389
146 3 2.57466 10.5002 2.9519
166 3 3.99627 12.8852 3.02046
174 3 1.25483 12.8786 3.0161
102 3 2.62875 13.6426 0.943486
122 3 5.29347 13.5913 0.900983
185 3 5.26527 10.5901 3.00395
214 3 1.25793 11.3671 5.24274
238 3 3.91314 11.3411 5.1568
198 3 2.69161 13.683 5.23928
242 3 2.66675 10.561 7.29196
262 3 4.04025 12.8588 7.3011
270 3 1.35767 12.9213 7.32844
281 3 5.34767 10.5945 7.3868
334 3 3.84962 11.3465 9.34477
310 3 1.28993 11.278 9.4632
294 3 2.56098 13.7402 9.42803
314 3 5.30406 13.8131 9.44459
94 2 1.79638 10.6617 12.7011
31 1 0.607333 11.2848 14.0729
5 1 2.4272 9.80206 12.9499
16 1 3.39461 11.8066 12.5794
65 2 4.3087 12.3804 12.4292
34 1 2.12475 13.7263 13.4227
1 1 3.9726 12.7664 11.45
62 1 1.86403 10.4285 11.7513
50 1 1.85549 13.9717 11.7833
106 3 4.05537 15.9967 0.977124
134 3 1.20174 16.0344 0.981012
162 3 1.21059 17.6135 3.05295
178 3 2.57199 15.2302 2.9606
182 3 3.96885 17.6264 3.06283
138 3 2.66475 18.3355 0.942451
110 3 5.37483 18.3187 0.966745
150 3 5.36923 15.2211 3.00098
202 3 3.97851 15.9737 5.14124
230 3 1.32864 16.0122 5.24676
234 3 2.64206 18.3026 5.20854
206 3 5.37095 18.223 5.17692
274 3 2.5659 15.2014 7.34841
246 3 5.35448 15.1462 7.34963
258 3 1.25082 17.5831 7.44786
278 3 3.90567 17.5476 7.48215
326 3 1.19682 16.0143 9.40781
298 3 3.92087 15.9102 9.50337
330 3 2.59633 18.3141 9.55564
302 3 5.316 18.4094 9.42934
36 1 3.14105 17.8184 12.5802
66 2 2.63734 18.499 11.9345
70 2 3.92242 16.0779 11.837
90 2 1.93011 14.4521 12.6841
64 1 4.86658 16.0525 11.8583
6 1 3.16707 15.5053 12.2085
114 3 6.63819 1.93451 0.939806
135 3 9.31239 2.04408 0.971916
159 3 8.0222 1.18825 3.00717
163 3 9.28911 3.50996 3.12397
189 3 6.60631 3.43448 3.08117
100 3 8.05571 4.3597 0.999426
179 3 10.699 1.2111 2.97712
139 3 10.6926 4.2144 0.999922
210 3 6.66557 1.94592 5.24355
231 3 9.38835 1.96835 5.25125
196 3 7.99815 4.29197 5.22584
254 3 7.97877 1.19495 7.30054
235 3 10.6825 4.29299 5.21851
275 3 10.7199 1.23302 7.36859
286 3 6.62559 3.47469 7.3771
259 3 9.36386 3.53563 7.43538
306 3 6.72117 2.04751 9.46444
327 3 9.35471 2.00015 9.54114
291 3 7.97836 4.31166 9.47333
331 3 10.5808 4.37738 9.47201
47 1 8.08878 4.32395 12.9283
81 2 6.93941 1.17413 12.7664
37 1 7.46025 2.06384 12.8884
83 2 8.47089 3.5376 12.803
20 1 10.4107 4.18104 12.7352
39 1 8.56705 3.30289 11.9652
33 1 7.00729 1.13616 11.7268
120 3 9.29226 6.61566 0.908791
125 3 6.67709 6.59929 0.96607
153 3 6.76408 8.24931 3.00868
172 3 7.9403 5.81439 3.04131
176 3 9.39421 8.25233 3.10499
132 3 7.98585 9.00924 0.894626
148 3 10.7134 5.85039 3.03657
104 3 10.697 9.06068 1.03145
216 3 9.30765 6.59979 5.1698
221 3 6.69372 6.74561 5.27823
228 3 8.00237 9.00825 5.30573
200 3 10.7435 8.99641 5.27792
244 3 10.6357 5.91201 7.33121
296 3 10.5494 8.9896 9.50876
265 3 8.03236 5.77196 7.42718
249 3 6.65371 8.21311 7.39013
272 3 9.33792 8.16414 7.36151
312 3 9.28073 6.70313 9.43824
317 3 6.61269 6.7216 9.39877
324 3 7.89351 8.99606 9.49506
8 1 9.04361 8.81472 11.6885
60 1 7.44258 8.1013 11.982
87 2 7.92572 8.94508 11.6707
12 1 6.70864 5.60063 11.4962
72 2 6.64725 5.9186 12.5348
21 1 5.70192 6.18544 12.5719
74 2 10.4673 8.84299 11.7672
113 3 6.64925 11.3733 0.909437
136 3 9.36755 11.4021 0.949969
160 3 8.05384 10.4926 3.06138
164 3 9.391 12.9143 2.99286
190 3 6.69357 12.848 3.00183
99 3 8.01397 13.6491 0.904952
140 3 10.735 13.6632 0.91422
180 3 10.7152 10.5757 3.0952
209 3 6.62882 11.2814 5.23517
232 3 9.37223 11.3423 5.20621
195 3 8.04935 13.5783 5.147
276 3 10.6852 10.576 7.33074
260 3 9.30458 12.7831 7.32515
236 3 10.6789 13.6147 5.10834
218 3 5.43278 13.6226 5.18594
253 3 7.94784 10.5369 7.38653
285 3 6.69084 12.905 7.4003
305 3 6.58301 11.3932 9.49718
328 3 9.24444 11.3031 9.43154
292 3 8.13434 13.6165 9.50407
332 3 10.6536 13.6285 9.37109
30 1 6.53098 10.3891 12.2459
82 2 6.58806 11.2765 11.9345
89 2 8.11797 13.5354 11.6562
43 1 7.54772 12.7261 11.9374
10 1 9.11925 13.3555 11.9446
54 1 5.62325 11.3613 12.3497
85 2 10.7352 13.5414 11.6293
119 3 9.31511 15.974 0.92131
126 3 6.70206 16.0348 0.826204
154 3 6.70175 17.501 3.01283
171 3 8.03931 15.1872 3.00764
175 3 9.37185 17.5319 3.01952
131 3 8.03059 18.2387 0.913248
103 3 10.657 18.2808 0.918942
147 3 10.736 15.2215 3.02401
215 3 9.40246 15.9446 5.2224
222 3 6.74841 15.9248 5.22191
227 3 8.0392 18.3115 5.16989
266 3 8.01803 15.1291 7.23358
199 3 10.6981 18.2295 5.30982
271 3 9.28436 17.5273 7.38891
250 3 6.6545 17.5013 7.40036
311 3 9.36318 15.9742 9.48372
318 3 6.71442 15.9209 9.4559
323 3 7.96583 18.3094 9.46607
243 3 10.6325 15.2444 7.36963
295 3 10.7547 18.3079 9.40064
51 1 9.09473 17.5209 11.7415
53 1 6.85367 14.8141 11.9852
52 1 8.04056 18.5365 12.591
96 2 6.5766 15.9037 11.8165
91 2 8.53459 17.5657 12.585
27 1 7.36275 16.4753 12.0649
46 1 10.4576 18.3269 13.0085
107 3 12.0297 2.01292 1.00961
127 3 14.7877 2.03365 1.05728
151 3 13.4256 1.14532 3.0451
155 3 14.6345 3.52307 3.0677
183 3 12.0208 3.51764 3.12126
111 3 13.4289 4.30906 1.06183
129 3 16.1076 4.21827 0.9958
169 3 16.0106 1.14871 3.11383
203 3 12.0161 1.94042 5.18378
223 3 14.7916 2.04174 5.31611
207 3 13.4104 4.28074 5.23044
247 3 13.4353 1.20706 7.35284
225 3 16.1094 4.3559 5.22384
267 3 16.1243 1.24824 7.42644
251 3 14.7081 3.56556 7.3955
279 3 12.0059 3.47387 7.43571
319 3 14.7406 2.10432 9.48788
299 3 12.0263 1.91216 9.44723
303 3 13.3873 4.22298 9.5188
321 3 15.9804 4.29037 9.64008
68 2 12.6496 2.19576 14.0626
57 1 11.773 3.47161 12.9939
42 1 11.2368 0.242863 11.8538
29 1 14.9179 2.77143 11.9794
80 2 15.109 2.37192 12.8206
24 1 11.9748 1.61455 13.8348
28 1 14.2276 2.06883 13.0245
7 1 15.453 1.01584 12.2331
76 2 11.2996 4.11814 12.3534
86 2 11.347 1.50679e-05 12.831
38 1 12.541 2.07549 14.9072
115 3 14.7414 6.58719 0.956168
144 3 12.028 6.72444 0.981885
168 3 12.0172 8.24725 3.03675
187 3 13.3802 5.8649 3.04754
192 3 14.7277 8.17558 3.09527
124 3 13.4484 9.02209 0.910993
157 3 16.0551 5.82942 3.05662
98 3 16.1639 8.87094 0.989846
194 3 16.0522 8.97749 5.23946
211 3 14.6999 6.6553 5.18624
240 3 11.9635 6.65042 5.23498
220 3 13.3702 9.01616 5.22644
255 3 16.0759 5.89611 7.37286
283 3 13.3167 5.81682 7.43587
289 3 16.0472 9.04299 9.36807
264 3 11.9942 8.13136 7.4948
287 3 14.6718 8.20402 7.37301
336 3 12.0242 6.65838 9.5003
307 3 14.7409 6.61285 9.44831
316 3 13.4274 9.04552 9.38136
84 2 14.7503 6.83327 11.8878
88 2 11.8911 6.73223 11.6698
14 1 14.8694 7.88975 12.1783
44 1 11.4616 5.88255 12.0691
48 1 12.754 6.82224 12.0364
4 1 15.614 6.31077 12.2418
18 1 11.1888 8.28901 11.8199
108 3 12.1141 11.2814 0.874233
128 3 14.7865 11.3032 0.984883
152 3 13.4115 10.55 3.02282
156 3 14.8101 12.8916 3.06012
184 3 12.1209 12.919 3.01593
112 3 13.3627 13.6102 0.908358
170 3 16.1102 10.5317 3.04876
130 3 16.0555 13.6625 0.891686
204 3 12.0634 11.256 5.19839
224 3 14.7839 11.3176 5.16777
208 3 13.4388 13.6371 5.21121
252 3 14.7937 12.9098 7.2499
280 3 12.0716 12.8751 7.31145
226 3 16.1354 13.6875 5.27373
248 3 13.3865 10.4766 7.31045
268 3 16.0536 10.5182 7.27887
322 3 16.1401 13.7361 9.39432
300 3 11.984 11.357 9.40772
320 3 14.7525 11.4496 9.30155
304 3 13.4891 13.6218 9.40055
75 2 14.344 10.1857 12.2099
41 1 14.7249 12.8965 13.4167
93 2 13.9814 13.3048 12.8473
22 1 12.8397 10.809 11.9436
35 1 10.963 10.0477 11.6928
79 2 15.99 11.7062 14.2724
69 2 11.7328 11.0537 11.7409
9 1 11.2881 12.7581 11.7309
61 1 13.9345 12.9696 11.9909
19 1 15.0972 10.9363 12.6016
23 1 14.7853 9.9685 11.3723
63 1 15.8387 11.4267 15.1385
116 3 14.8089 16.0302 0.965157
143 3 12.0706 16.1117 0.888727
167 3 12.0806 17.5355 3.07674
188 3 13.4372 15.2374 3.08106
191 3 14.8121 17.5147 2.98624
123 3 13.4286 18.252 0.899379
97 3 16.0774 18.3964 0.920201
158 3 16.0546 15.1644 3.04765
212 3 14.7482 15.969 5.20216
239 3 11.9966 15.927 5.19064
219 3 13.5181 18.2572 5.18124
256 3 16.1165 15.2472 7.32768
193 3 16.0442 18.2982 5.23294
284 3 13.4276 15.1957 7.36803
288 3 14.737 17.4805 7.47421
263 3 12.0673 17.5819 7.40865
308 3 14.7378 15.9306 9.47337
335 3 12.0354 16.0103 9.45095
315 3 13.4163 18.3767 9.50349
290 3 16.1224 18.3259 9.56573
3 1 15.2716 17.1932 12.1377
15 1 11.5981 16.8105 12.4523
49 1 11.0779 14.4349 11.7904
95 2 11.9683 15.855 12.0307
25 1 12.9706 15.6545 12.4502
59 1 15.1618 15.4713 12.364
71 2 14.7158 16.2496 11.8232
67 2 15.8379 18.6244 11.9425
