ITEM: TIMESTEP
18404000
ITEM: NUMBER OF ATOMS
336
ITEM: BOX BOUNDS pp pp pp
0.0000000000000000e+00 1.6167135238600000e+01
0.0000000000000000e+00 1.8668199539200000e+01
0.0000000000000000e+00 2.5747400283800001e+01
ITEM: ATOMS id type x y z
117 3 1.25054 1.96679 0.927617
141 3 3.99026 1.89507 1.00846
145 3 2.62316 1.2718 3.04974
165 3 4.01793 3.54189 3.03852
173 3 1.25286 3.51252 3.03403
101 3 2.65856 4.25518 1.04212
186 3 5.36566 1.1649 3.0636
121 3 5.33868 4.24829 0.953233
213 3 1.27896 2.00903 5.14559
237 3 3.96375 1.99749 5.27122
197 3 2.60072 4.25535 5.04081
217 3 5.22685 4.48353 5.23776
241 3 2.50465 1.24701 7.31264
282 3 5.36033 1.12158 7.36157
261 3 3.86191 3.60577 7.36349
269 3 1.22339 3.56214 7.42613
309 3 1.28338 2.02804 9.4563
333 3 4.07358 2.02208 9.38463
293 3 2.56153 4.39579 9.42023
313 3 5.2447 4.39224 9.44489
2 1 3.00793 0.824241 12.074
58 1 4.92007 1.75095 12.3184
77 2 4.10913 2.09094 12.6617
11 1 4.03993 3.10071 12.5839
17 1 0.316984 4.26199 12.737
105 3 3.92621 6.6145 0.940718
133 3 1.27117 6.64413 0.88659
161 3 1.28674 8.16876 3.05034
177 3 2.59777 5.87705 2.95619
181 3 4.00013 8.16869 3.01492
137 3 2.59644 8.97463 0.98824
109 3 5.3113 8.97972 0.906916
149 3 5.25872 5.95054 3.04861
98 3 0.00557778 8.87558 0.98294
201 3 3.99938 6.76434 5.17213
229 3 1.31604 6.6586 5.17477
233 3 2.57073 9.02867 5.14371
245 3 5.35169 5.83154 7.31795
277 3 4.02997 8.30877 7.29685
257 3 1.34624 8.17791 7.32882
273 3 2.61645 5.87541 7.28131
205 3 5.36669 9.01799 5.09753
325 3 1.37568 6.63872 9.4008
297 3 3.95873 6.6403 9.47399
329 3 2.57304 8.97029 9.51165
301 3 5.27748 9.06245 9.50678
40 1 5.14766 7.34606 10.4762
55 1 3.55095 8.58873 11.7299
56 1 3.04085 7.36077 12.7276
92 2 3.41307 8.39428 12.7921
45 1 2.95853 5.21284 13.2036
78 2 3.78477 5.29392 12.5161
13 1 3.50468 5.30669 11.543
32 1 1.00739 5.16973 11.5661
73 2 0.943605 5.14934 12.5751
118 3 1.31886 11.2864 0.936958
142 3 3.99193 11.4166 0.943973
146 3 2.58023 10.5171 2.95476
166 3 4.0014 12.9051 3.00981
174 3 1.27182 12.8686 3.01814
102 3 2.63384 13.6482 0.952806
122 3 5.29713 13.6084 0.914597
185 3 5.25379 10.5606 2.99824
214 3 1.26088 11.3713 5.24544
238 3 3.92233 11.3565 5.16168
198 3 2.68135 13.6764 5.23703
242 3 2.6658 10.5615 7.28325
262 3 4.05339 12.8728 7.29501
270 3 1.35037 12.9311 7.32886
281 3 5.36258 10.5983 7.39771
310 3 1.28342 11.2906 9.46184
334 3 3.82857 11.3399 9.33842
294 3 2.55802 13.7307 9.42318
314 3 5.30188 13.8026 9.43368
62 1 1.80435 10.44 11.541
1 1 3.99714 12.6016 11.5123
50 1 1.71236 13.8663 11.9269
16 1 3.36854 11.7514 12.5657
5 1 2.42872 9.78316 12.8633
65 2 4.31321 12.3243 12.4475
94 2 1.8323 10.6452 12.6739
31 1 0.604626 11.1803 14.0609
34 1 1.93607 13.9241 13.3165
106 3 4.05167 15.9942 0.970446
134 3 1.20581 16.0551 0.986748
162 3 1.22308 17.6251 3.04697
178 3 2.59069 15.206 2.95494
182 3 3.94693 17.6125 3.06285
138 3 2.64604 18.3077 0.959019
150 3 5.38393 15.2105 3.00071
110 3 5.37568 18.3201 0.974227
202 3 3.98386 15.9706 5.14312
230 3 1.32874 16.0286 5.24842
234 3 2.6494 18.3199 5.21108
206 3 5.36026 18.2314 5.18399
274 3 2.57432 15.205 7.33652
302 3 5.3231 18.4123 9.43672
258 3 1.24248 17.5775 7.43616
278 3 3.89319 17.5478 7.48919
326 3 1.20399 16.0112 9.38696
298 3 3.93509 15.9008 9.49761
330 3 2.59118 18.3224 9.55164
246 3 5.34908 15.1546 7.3595
6 1 3.26132 15.2729 11.9935
70 2 3.9627 16.1023 11.8243
66 2 2.61788 18.5548 11.936
36 1 3.17148 17.8874 12.5946
64 1 4.78388 15.973 12.0367
90 2 1.90039 14.4925 12.6578
26 1 0.816156 18.6271 11.7987
114 3 6.64429 1.94562 0.918602
135 3 9.30347 2.04142 0.963855
159 3 8.01258 1.17718 3.01875
163 3 9.29165 3.49254 3.1116
189 3 6.59826 3.42816 3.07388
100 3 8.06319 4.35404 0.994822
179 3 10.6844 1.19595 2.95596
139 3 10.6733 4.21639 1.01879
210 3 6.63511 1.95805 5.23295
231 3 9.37192 1.98289 5.24418
196 3 7.98492 4.28445 5.22907
254 3 7.96523 1.22003 7.29755
235 3 10.6712 4.28234 5.2437
331 3 10.5612 4.39825 9.47149
286 3 6.62088 3.48079 7.37709
259 3 9.34872 3.52882 7.43502
327 3 9.37493 2.00093 9.53137
306 3 6.71879 2.0332 9.47253
291 3 7.96512 4.32434 9.50464
275 3 10.7351 1.22699 7.38369
47 1 8.09805 4.47947 12.8557
81 2 6.97064 1.13829 12.7661
33 1 6.92572 1.14193 11.7845
83 2 8.47352 3.54539 12.7806
20 1 10.362 4.25217 12.6108
39 1 8.61626 3.25874 11.9353
37 1 7.46625 1.87336 12.9275
120 3 9.2843 6.61009 0.917085
125 3 6.66234 6.60659 0.955662
153 3 6.74506 8.2285 3.01183
172 3 7.95523 5.82755 3.05615
176 3 9.38717 8.26268 3.09486
132 3 7.99686 9.00828 0.883142
148 3 10.7044 5.83171 3.04154
104 3 10.6855 9.05397 1.0345
200 3 10.7295 8.98749 5.28806
216 3 9.29667 6.61705 5.1728
221 3 6.69695 6.71644 5.26258
228 3 8.00889 8.9821 5.31498
272 3 9.35592 8.14304 7.34285
244 3 10.6323 5.90275 7.31558
265 3 8.0233 5.77559 7.41802
249 3 6.66929 8.20739 7.37587
317 3 6.60399 6.71274 9.39431
312 3 9.29266 6.69819 9.4371
324 3 7.88389 8.99351 9.49089
296 3 10.5454 9.00039 9.49347
74 2 10.4477 8.81449 11.7841
21 1 5.74518 6.16295 12.4889
8 1 9.04333 8.72924 11.7381
72 2 6.66122 5.96222 12.594
87 2 7.94629 8.96205 11.6447
12 1 6.59766 5.67638 11.5771
60 1 7.52034 8.10313 11.982
113 3 6.65096 11.3636 0.911365
136 3 9.37169 11.4071 0.981741
160 3 8.04452 10.4817 3.05551
164 3 9.38784 12.8919 3.00333
190 3 6.68233 12.8717 3.00121
99 3 8.01073 13.6639 0.890833
140 3 10.74 13.6631 0.900628
180 3 10.7364 10.5743 3.08613
209 3 6.61544 11.2913 5.24441
232 3 9.39215 11.3501 5.20017
195 3 8.052 13.565 5.13575
260 3 9.31387 12.7756 7.34111
276 3 10.6932 10.5718 7.32801
236 3 10.6834 13.6131 5.11211
218 3 5.44636 13.6381 5.18479
253 3 7.94518 10.5474 7.38837
285 3 6.69038 12.895 7.41338
328 3 9.23973 11.3155 9.43491
305 3 6.57007 11.4045 9.50106
292 3 8.14445 13.6209 9.50252
332 3 10.6842 13.6206 9.36091
43 1 7.57742 12.7208 11.8933
85 2 10.7509 13.5612 11.6412
30 1 6.66353 10.2145 12.1649
82 2 6.63383 11.2354 11.9292
10 1 9.18128 13.4149 11.9443
54 1 5.78242 11.4446 12.1435
89 2 8.12789 13.5266 11.6845
119 3 9.31547 15.965 0.911771
126 3 6.7041 16.0298 0.821375
154 3 6.71716 17.5297 3.00244
171 3 8.04558 15.1653 3.0025
175 3 9.37735 17.5495 3.00829
131 3 8.01858 18.2343 0.944924
103 3 10.6584 18.2796 0.912826
147 3 10.7545 15.2249 3.01529
243 3 10.6191 15.2449 7.35242
215 3 9.38948 15.9485 5.22342
222 3 6.75639 15.9249 5.21685
227 3 8.03491 18.31 5.17391
199 3 10.6929 18.2107 5.31675
266 3 8.01629 15.1098 7.22285
271 3 9.27732 17.5284 7.38496
250 3 6.64262 17.511 7.40325
318 3 6.70797 15.9288 9.45051
311 3 9.37866 15.9749 9.47339
323 3 7.95195 18.3138 9.47987
295 3 10.7541 18.3214 9.39499
27 1 7.26914 16.3768 12.159
52 1 7.95595 18.395 12.6098
91 2 8.55109 17.5407 12.5735
53 1 6.87489 14.9852 11.9714
96 2 6.54448 15.8947 11.8457
51 1 9.28953 17.6431 11.6344
46 1 10.5465 18.3177 13.0899
107 3 12.0368 1.99626 1.01258
127 3 14.8037 2.02828 1.05219
151 3 13.4201 1.14229 3.05001
155 3 14.6375 3.52283 3.07518
183 3 12.0237 3.51515 3.11167
111 3 13.4352 4.31857 1.07398
129 3 16.1212 4.23944 0.999473
169 3 16.001 1.14421 3.11963
203 3 12.0166 1.93867 5.16697
223 3 14.776 2.06902 5.31572
207 3 13.4127 4.28111 5.23352
225 3 16.1139 4.36782 5.22995
247 3 13.4188 1.23437 7.34487
321 3 15.9915 4.29748 9.62969
267 3 16.1407 1.24907 7.43723
279 3 12.0053 3.48096 7.43801
251 3 14.7035 3.57371 7.41413
299 3 12.0277 1.92217 9.42915
319 3 14.7296 2.09822 9.49724
303 3 13.3769 4.20976 9.52027
29 1 14.8797 2.80693 11.9272
42 1 11.3445 0.202319 11.8193
68 2 12.6268 2.16871 14.0406
28 1 14.24 1.92918 12.9083
80 2 15.1423 2.41437 12.7853
24 1 11.9013 1.48702 13.7556
57 1 11.8765 3.62415 12.8977
7 1 15.4549 0.781024 12.2383
76 2 11.2739 4.1669 12.335
67 2 15.9056 0.0293603 11.9867
38 1 12.672 2.14892 14.9433
115 3 14.7353 6.59988 0.966464
144 3 12.0444 6.73305 0.984053
168 3 12.0221 8.24167 3.03079
187 3 13.3787 5.86791 3.04485
192 3 14.7263 8.17226 3.0986
124 3 13.4367 9.01039 0.943409
157 3 16.0661 5.83865 3.03284
211 3 14.6938 6.66097 5.19604
240 3 11.9544 6.65224 5.24298
220 3 13.3814 9.00587 5.22293
194 3 16.0491 8.95093 5.24863
255 3 16.074 5.89893 7.36961
283 3 13.3227 5.82608 7.43272
264 3 12.0085 8.14043 7.49577
287 3 14.6808 8.18666 7.35939
289 3 16.0555 9.04415 9.3905
307 3 14.7361 6.60938 9.47121
336 3 12.0179 6.64465 9.50471
316 3 13.4393 9.04419 9.37741
18 1 10.9625 8.04774 12.0011
4 1 15.3373 6.33209 12.2065
84 2 14.7316 6.85381 11.9257
14 1 15.0726 7.71698 12.2602
48 1 12.8782 6.86272 11.8512
88 2 11.8824 6.72871 11.7345
44 1 11.7054 5.75572 12.0176
108 3 12.1231 11.261 0.871676
128 3 14.7716 11.3035 0.975826
152 3 13.4343 10.5448 3.01203
156 3 14.7887 12.8757 3.06473
184 3 12.1208 12.9248 3.01789
112 3 13.3543 13.6076 0.920091
170 3 16.1205 10.5281 3.0595
130 3 16.0416 13.6811 0.893469
204 3 12.0615 11.2553 5.20277
224 3 14.802 11.3053 5.17059
208 3 13.4264 13.6419 5.21294
268 3 16.0493 10.538 7.27537
252 3 14.7683 12.9188 7.25442
280 3 12.0549 12.8687 7.32743
248 3 13.3851 10.4558 7.27229
226 3 16.1379 13.6781 5.26186
320 3 14.7517 11.4416 9.27891
300 3 12.0038 11.3765 9.40479
304 3 13.4975 13.6365 9.38981
322 3 16.1335 13.7377 9.39545
93 2 13.9813 13.3268 12.8806
41 1 14.7253 12.9927 13.4491
61 1 13.93 12.957 12.0516
35 1 11.2363 10.155 11.7407
69 2 11.7299 11.064 11.7541
79 2 16.0727 11.6926 14.2682
9 1 11.4345 12.7957 11.6126
22 1 12.7744 10.792 11.9916
75 2 14.3241 10.2171 12.2066
19 1 14.9307 10.9483 12.7801
23 1 14.8212 9.99816 11.4125
63 1 15.7735 11.315 15.2466
116 3 14.8324 16.0204 0.94414
143 3 12.0513 16.1213 0.892412
167 3 12.0856 17.5371 3.06378
188 3 13.4368 15.2319 3.06317
191 3 14.8199 17.5032 2.9893
123 3 13.4161 18.2653 0.904055
97 3 16.0757 18.3967 0.929297
158 3 16.0241 15.1662 3.03205
193 3 16.0499 18.2918 5.23739
212 3 14.7498 15.9665 5.19445
239 3 12.005 15.9405 5.22895
219 3 13.5218 18.2695 5.16731
256 3 16.1065 15.2482 7.31372
284 3 13.4379 15.2074 7.36677
288 3 14.7363 17.5022 7.45269
263 3 12.0729 17.5725 7.3936
335 3 12.0476 16.0208 9.45945
308 3 14.7462 15.9302 9.46549
315 3 13.4008 18.3843 9.48458
290 3 16.1213 18.3271 9.56184
95 2 11.951 15.8495 12.0198
3 1 15.2915 17.2517 12.1026
49 1 10.9905 14.4948 11.7096
59 1 15.1415 15.4508 12.1867
71 2 14.7143 16.2878 11.843
15 1 11.6606 16.6498 12.2781
25 1 12.9749 15.5902 12.2421
86 2 11.3628 18.6143 12.747
