ITEM: TIMESTEP
18404000
ITEM: NUMBER OF ATOMS
336
ITEM: BOX BOUNDS pp pp pp
0.0000000000000000e+00 1.6167135238600000e+01
0.0000000000000000e+00 1.8668199539200000e+01
0.0000000000000000e+00 2.5747400283800001e+01
ITEM: ATOMS id type x y z
117 3 1.24275 1.96602 0.942934
141 3 3.99958 1.89458 0.993246
145 3 2.63017 1.29049 3.02059
165 3 4.02692 3.55241 3.06304
173 3 1.23423 3.53116 3.04338
101 3 2.66229 4.27269 1.04559
186 3 5.35062 1.16524 3.07751
121 3 5.32325 4.25089 0.960128
213 3 1.2689 2.0419 5.15287
237 3 3.94162 2.00678 5.26148
197 3 2.59655 4.236 5.06876
217 3 5.23217 4.45943 5.21621
241 3 2.51408 1.24479 7.32863
282 3 5.32349 1.12368 7.38827
261 3 3.82973 3.60536 7.36792
269 3 1.20626 3.56545 7.41109
333 3 4.04897 2.05137 9.37673
309 3 1.27259 2.04805 9.47788
293 3 2.55647 4.37702 9.42005
313 3 5.24423 4.36728 9.41476
58 1 5.18329 1.63093 12.378
2 1 3.08884 0.648318 12.298
77 2 4.03903 2.03403 12.6059
11 1 3.97328 3.0407 12.6363
17 1 0.219212 4.4628 12.5478
26 1 0.629132 0.209039 11.8301
105 3 3.90017 6.62026 0.943746
133 3 1.28033 6.66171 0.866148
161 3 1.26262 8.18862 3.04052
177 3 2.58517 5.90009 2.98261
181 3 3.98438 8.15192 3.04586
137 3 2.63837 8.98186 0.99153
109 3 5.29663 8.97513 0.877095
149 3 5.26371 5.90658 3.05619
98 3 0.00138562 8.90752 0.984752
201 3 3.98791 6.78285 5.1776
229 3 1.29805 6.6165 5.21579
233 3 2.58062 9.03564 5.1292
277 3 4.02431 8.33583 7.29579
245 3 5.32961 5.83797 7.31303
273 3 2.58649 5.8765 7.26917
257 3 1.3455 8.16579 7.31643
205 3 5.37257 9.03119 5.11774
301 3 5.26506 9.02996 9.53264
297 3 3.97228 6.63531 9.46374
325 3 1.37964 6.65074 9.38812
329 3 2.54985 8.95004 9.51449
40 1 5.25549 7.60222 10.5323
56 1 3.21148 7.54498 13.04
92 2 3.43449 8.38166 12.7832
45 1 3.02999 5.4954 13.0435
55 1 3.30161 8.47274 11.7486
13 1 3.47365 5.15833 11.5945
78 2 3.82292 5.35338 12.5548
32 1 1.36816 5.06882 11.4058
73 2 0.915985 5.24307 12.5557
118 3 1.31671 11.2791 0.937715
142 3 3.98453 11.4119 0.943104
146 3 2.57542 10.5137 2.93266
166 3 4.00519 12.9091 3.05792
174 3 1.26861 12.8407 3.00665
102 3 2.6325 13.6344 0.943325
122 3 5.32835 13.5985 0.951792
185 3 5.26707 10.5415 3.01027
214 3 1.2675 11.3805 5.25516
238 3 3.92395 11.345 5.16517
198 3 2.7031 13.6708 5.24562
242 3 2.66567 10.5556 7.25572
262 3 4.02139 12.8936 7.306
270 3 1.34613 12.9182 7.34309
334 3 3.83246 11.3033 9.34398
310 3 1.27923 11.3069 9.44725
294 3 2.59238 13.7445 9.42491
314 3 5.31188 13.7709 9.47566
281 3 5.34087 10.5981 7.40217
62 1 1.73172 10.4386 11.7786
31 1 0.719731 11.1655 13.7764
5 1 2.48006 9.92566 13.0244
94 2 1.77657 10.5077 12.7259
1 1 4.14312 12.559 11.4548
34 1 2.13021 13.815 13.3852
65 2 4.25964 12.3454 12.4255
16 1 3.62314 11.5547 12.6059
106 3 4.03269 16.0007 0.96143
134 3 1.24144 16.0558 0.98119
162 3 1.21402 17.6312 3.05851
178 3 2.56306 15.205 2.96558
182 3 3.93269 17.5921 3.0703
138 3 2.62211 18.3073 0.902229
110 3 5.36983 18.3094 1.00624
202 3 3.98165 15.9628 5.13074
230 3 1.36748 16.0011 5.22085
234 3 2.64163 18.3241 5.17632
206 3 5.35421 18.2467 5.19661
274 3 2.60688 15.2153 7.32689
302 3 5.38188 18.3832 9.42787
246 3 5.34807 15.148 7.37794
258 3 1.25131 17.5931 7.43679
278 3 3.89771 17.5372 7.49763
298 3 3.91578 15.9109 9.48958
326 3 1.20228 16.0287 9.40327
330 3 2.59618 18.3281 9.54223
66 2 2.61299 18.621 11.8608
64 1 4.90062 16.0948 11.8761
6 1 3.46944 15.2832 12.1504
70 2 3.94919 16.123 11.8254
36 1 3.14355 17.8465 12.0481
90 2 1.86913 14.5362 12.647
50 1 1.63605 14.1134 11.7771
114 3 6.66142 1.92941 0.919456
135 3 9.3183 2.01483 0.954455
159 3 7.99665 1.19696 3.01484
163 3 9.32323 3.48594 3.15771
189 3 6.58631 3.4256 3.11459
100 3 8.06661 4.36158 1.0108
179 3 10.6698 1.21047 2.97111
139 3 10.6816 4.19761 1.00186
235 3 10.6971 4.30005 5.22039
210 3 6.65679 1.92762 5.22648
231 3 9.40497 1.96721 5.26249
196 3 8.01851 4.27222 5.2112
286 3 6.60869 3.46751 7.34103
254 3 8.00781 1.21016 7.32086
259 3 9.35083 3.50179 7.43648
331 3 10.5693 4.38855 9.47274
327 3 9.37924 2.00972 9.54481
306 3 6.7088 2.00759 9.44991
291 3 8.0086 4.32782 9.48079
275 3 10.6974 1.23493 7.35738
33 1 7.10732 1.23214 11.9669
20 1 10.3911 3.82572 12.5523
37 1 7.25542 2.1018 13.029
83 2 8.46007 3.52407 12.792
81 2 6.89678 1.19984 12.749
39 1 8.67828 3.21046 11.8017
47 1 7.7482 4.37015 12.9866
120 3 9.29068 6.61125 0.920016
125 3 6.65751 6.6058 0.957509
153 3 6.78825 8.22035 3.03761
172 3 7.95586 5.8112 3.07164
176 3 9.38203 8.21403 3.08333
132 3 7.97647 9.03655 0.881124
148 3 10.7347 5.84324 3.04756
104 3 10.7193 9.0898 1.02838
200 3 10.7421 8.99275 5.28288
216 3 9.29785 6.60836 5.20787
221 3 6.6605 6.72917 5.2543
228 3 7.99977 8.99069 5.31144
272 3 9.35834 8.14518 7.34224
296 3 10.5386 9.00495 9.48903
265 3 8.04105 5.77351 7.38143
249 3 6.65807 8.22717 7.36071
312 3 9.28985 6.70451 9.44707
317 3 6.60194 6.69379 9.37982
324 3 7.89645 9.02446 9.4789
244 3 10.6182 5.88297 7.36668
74 2 10.4676 8.91139 11.7363
21 1 5.65811 6.18654 12.5442
8 1 9.22253 8.83672 11.7407
87 2 7.93957 8.88711 11.6242
12 1 6.718 5.58095 11.5618
60 1 7.57626 8.24828 12.1015
72 2 6.61563 5.99486 12.5958
113 3 6.61219 11.3894 0.877541
136 3 9.37034 11.4103 0.996463
160 3 8.0521 10.5128 3.07676
164 3 9.4066 12.905 2.99225
190 3 6.66792 12.8982 2.99866
99 3 8.00821 13.6455 0.861581
140 3 10.7082 13.6929 0.89726
180 3 10.7182 10.5785 3.10601
236 3 10.6776 13.6104 5.12676
209 3 6.63346 11.311 5.21512
232 3 9.34207 11.3607 5.1837
195 3 8.05468 13.5892 5.16697
260 3 9.27373 12.7594 7.32336
276 3 10.7252 10.5611 7.35009
218 3 5.42153 13.5987 5.21645
253 3 7.95125 10.5657 7.38764
285 3 6.69318 12.9087 7.45091
305 3 6.59338 11.3769 9.512
328 3 9.24942 11.2957 9.40704
292 3 8.15725 13.613 9.48925
332 3 10.6345 13.6126 9.37033
30 1 6.68819 10.31 12.1875
82 2 6.59567 11.2497 11.8121
43 1 7.43531 12.5657 12.1282
54 1 5.57896 11.4849 12.0329
10 1 9.04863 13.3456 12.0466
89 2 8.06499 13.468 11.6749
85 2 10.7024 13.553 11.734
119 3 9.32259 15.9837 0.908816
126 3 6.68528 16.0327 0.844659
154 3 6.6939 17.5142 3.03054
171 3 8.0226 15.1915 3.00184
175 3 9.36613 17.5618 3.01982
131 3 8.02809 18.19 0.928295
103 3 10.6193 18.2879 0.910628
147 3 10.7338 15.2386 3.01943
150 3 5.39541 15.2101 3.00693
199 3 10.6754 18.2519 5.28939
215 3 9.38747 15.9697 5.205
222 3 6.7411 15.9391 5.21087
227 3 8.03901 18.3256 5.19032
266 3 8.02032 15.1592 7.21307
243 3 10.6521 15.2092 7.36823
250 3 6.63631 17.5048 7.39582
271 3 9.2988 17.5115 7.40774
318 3 6.67901 15.9016 9.48024
311 3 9.36846 15.9576 9.46822
323 3 7.95929 18.3229 9.47162
295 3 10.7199 18.3272 9.39502
52 1 7.97039 18.4476 12.6742
51 1 9.30336 17.6066 11.5466
96 2 6.57507 15.9008 11.8052
91 2 8.45987 17.5439 12.475
27 1 7.29778 16.5576 12.086
53 1 6.90288 15.069 12.3927
46 1 10.543 18.3064 13.2005
107 3 12.0592 2.02931 1.01588
127 3 14.7987 2.01298 1.0613
151 3 13.4337 1.14537 3.06318
155 3 14.651 3.51905 3.05815
183 3 12.0156 3.5054 3.1255
111 3 13.4324 4.32048 1.06052
129 3 16.0804 4.24668 0.998265
169 3 15.9897 1.15628 3.12103
203 3 12.0313 1.9413 5.15877
223 3 14.7671 2.06608 5.31946
207 3 13.4047 4.31936 5.2486
225 3 16.1108 4.34875 5.20577
247 3 13.4093 1.21701 7.34718
251 3 14.7233 3.53659 7.40385
321 3 15.9869 4.29261 9.61237
279 3 11.9826 3.44298 7.4338
299 3 12.0186 1.90898 9.42865
319 3 14.7299 2.10145 9.48195
303 3 13.3848 4.23721 9.49657
267 3 16.1363 1.24387 7.44258
68 2 12.6784 2.14672 14.0364
7 1 15.5915 0.865856 12.3488
24 1 12.0922 1.31854 13.7152
80 2 15.1194 2.47033 12.7631
28 1 14.091 2.28648 13.128
29 1 15.1072 2.7154 11.6921
57 1 11.9366 3.54983 12.9056
76 2 11.2975 4.19364 12.3204
42 1 11.2005 0.560551 12.1036
38 1 12.7448 2.04474 14.9676
115 3 14.7028 6.62412 0.976318
144 3 12.0554 6.7028 0.946785
168 3 12.0111 8.25868 3.05456
187 3 13.3595 5.86093 3.05546
192 3 14.7172 8.18183 3.12168
124 3 13.4415 9.0092 0.921117
157 3 16.0532 5.85312 3.03459
194 3 16.0522 8.97041 5.24556
211 3 14.7355 6.67577 5.17877
240 3 11.9488 6.64174 5.28067
220 3 13.3373 8.9697 5.21525
255 3 16.0642 5.86371 7.35624
283 3 13.3297 5.80735 7.40613
289 3 16.0695 9.03552 9.3955
264 3 11.9916 8.13316 7.52269
287 3 14.6915 8.20724 7.38009
336 3 12.0372 6.65787 9.52687
307 3 14.7388 6.61925 9.45021
316 3 13.4169 9.07416 9.40842
18 1 10.8566 7.94686 11.8254
4 1 15.4521 6.18687 12.2892
44 1 11.5701 5.83922 11.8377
14 1 14.8563 7.93374 11.9944
88 2 11.938 6.70701 11.7572
48 1 12.7999 6.82019 12.123
84 2 14.7356 6.87166 11.8767
108 3 12.1162 11.2416 0.890376
128 3 14.7238 11.3089 0.985652
152 3 13.4752 10.5852 3.0037
156 3 14.8288 12.8741 3.03079
184 3 12.1196 12.9172 3.05726
112 3 13.3643 13.5986 0.914831
170 3 16.1482 10.5389 3.0653
130 3 16.04 13.6752 0.899359
204 3 12.0359 11.2166 5.21244
224 3 14.8349 11.3438 5.14833
208 3 13.423 13.6702 5.19683
280 3 12.0554 12.873 7.28078
252 3 14.7737 12.9001 7.2418
248 3 13.4181 10.4688 7.27869
268 3 16.0269 10.5078 7.2548
226 3 16.1199 13.6995 5.26573
322 3 16.102 13.7121 9.36836
300 3 11.9758 11.346 9.42468
320 3 14.765 11.4606 9.28732
304 3 13.472 13.6499 9.41167
19 1 14.9004 10.6837 12.7743
22 1 12.6648 10.7333 11.9981
75 2 14.3358 10.1943 12.2638
9 1 11.4299 12.8627 11.6082
35 1 11.2517 9.97154 11.7616
93 2 13.9948 13.2999 12.8171
69 2 11.7602 11.014 11.683
79 2 16.0276 11.6862 14.288
41 1 14.7772 13.0083 13.4318
61 1 14.1368 12.9612 11.9367
23 1 14.667 10.0892 11.3304
63 1 15.954 11.3285 15.2747
116 3 14.8389 16.033 0.959048
143 3 12.0555 16.1286 0.892449
167 3 12.0927 17.5138 3.06953
188 3 13.422 15.2489 3.0321
191 3 14.8268 17.5145 3.00156
123 3 13.3986 18.2781 0.908317
97 3 16.075 18.3566 0.916968
158 3 16.0664 15.1696 3.02464
193 3 16.0604 18.2851 5.22212
212 3 14.6915 15.9719 5.20792
239 3 12.0081 15.9154 5.21598
219 3 13.4938 18.2861 5.15079
284 3 13.4159 15.1941 7.34267
256 3 16.1362 15.2657 7.34865
263 3 12.1073 17.5591 7.37793
288 3 14.7557 17.4883 7.46401
335 3 12.0706 16.0178 9.46204
308 3 14.7515 15.9329 9.49181
315 3 13.3992 18.3441 9.53683
290 3 16.1103 18.3473 9.548
3 1 15.2445 17.0811 12.0235
86 2 11.356 18.5596 12.7661
71 2 14.7453 16.2587 11.8579
49 1 11.3138 14.3048 11.9731
25 1 12.7909 15.7098 12.0226
15 1 11.6528 16.7716 12.3294
59 1 15.1576 15.4332 12.5799
95 2 11.9188 15.8655 12.0626
67 2 15.7487 18.6637 11.9333
