ITEM: TIMESTEP
120000000
ITEM: NUMBER OF ATOMS
336
ITEM: BOX BOUNDS pp pp pp
0.0000000000000000e+00 1.6167135238600000e+01
0.0000000000000000e+00 1.8668199539200000e+01
0.0000000000000000e+00 2.5747400283800001e+01
ITEM: ATOMS id type x y z
117 3 2.48824 1.90496 1.04272
145 3 3.71251 1.18752 3.17368
169 3 1.08412 1.10598 2.99858
213 3 2.41507 1.80266 5.17295
241 3 3.75353 1.04681 7.4026
267 3 0.975942 1.05037 7.36081
309 3 2.34909 1.84254 9.42435
8 1 1.77005 2.77508 12.7521
66 2 2.59401 2.3321 12.6113
3 1 3.2252 0.457365 12.2345
35 1 2.8735 2.46478 11.5882
101 3 3.65953 4.19846 0.959617
173 3 2.35759 3.44921 3.10673
129 3 1.07816 4.17882 0.935456
157 3 0.969713 5.73348 3.125
177 3 3.77185 5.69678 3.04765
197 3 3.7407 4.23397 5.25018
225 3 0.948777 4.20631 5.25327
255 3 1.07945 5.77487 7.32996
273 3 3.77735 5.69832 7.32182
269 3 2.42344 3.40281 7.36431
321 3 0.991473 4.23888 9.54769
293 3 3.66644 4.10519 9.52015
56 1 0.677322 5.54078 12.8573
20 1 3.76318 5.80327 11.7662
71 2 0.255728 3.91537 12.5679
69 2 3.82469 4.23484 16.0725
58 1 4.02556 5.14523 16.3089
1 1 3.03058 3.95905 16.5905
133 3 2.37664 6.56441 0.971169
161 3 2.47503 7.99429 3.00693
137 3 3.73084 8.88849 1.00556
98 3 1.12566 8.90325 0.946588
229 3 2.42198 6.53535 5.19456
194 3 1.11161 8.92736 5.21666
233 3 3.87907 8.77866 5.27776
257 3 2.41497 8.03261 7.35817
325 3 2.4967 6.46701 9.35173
329 3 3.74995 8.74629 9.52822
289 3 1.02502 8.70201 9.33124
11 1 0.67608 6.66554 11.7023
27 1 3.48314 8.25015 11.9695
83 2 3.83421 9.12416 11.6568
80 2 0.990416 6.46946 12.6084
73 2 3.69581 6.37529 12.6825
42 1 2.83374 6.32885 12.9699
118 3 2.48268 11.2101 1.05704
146 3 3.74094 10.4114 3.08043
170 3 1.00235 10.4442 3.00308
214 3 2.42662 11.2776 5.12575
268 3 1.02645 10.4014 7.26615
242 3 3.82213 10.356 7.42564
310 3 2.3417 11.1426 9.30615
85 2 2.40498 11.0005 11.5655
16 1 0.727705 10.7033 11.8957
31 1 3.16296 10.0584 11.7533
17 1 2.94014 11.9046 11.7647
102 3 3.80329 13.5723 0.936359
174 3 2.38325 12.7993 3.06973
130 3 1.12807 13.5756 1.00955
178 3 3.77536 15.1447 3.01323
158 3 1.05809 15.1534 2.90661
198 3 3.80916 13.4741 5.2888
226 3 1.08161 13.5511 5.1638
270 3 2.37791 12.7598 7.30951
256 3 1.05971 15.0208 7.31332
274 3 3.75662 15.0566 7.36415
322 3 0.995431 13.5108 9.26035
294 3 3.84622 13.4685 9.48799
38 1 3.49448 14.3128 11.894
92 2 3.73261 13.4195 11.831
134 3 2.35122 15.97 0.98517
162 3 2.42929 17.5419 3.02372
97 3 1.11087 18.2303 0.844207
138 3 3.79802 18.2081 1.0085
230 3 2.38855 15.8189 5.10097
234 3 3.69413 18.182 5.17472
193 3 1.11339 18.1929 5.14554
258 3 2.39099 17.3671 7.38785
326 3 2.45024 15.7956 9.37184
330 3 3.80618 18.1659 9.39453
290 3 1.02526 18.068 9.44559
36 1 2.8189 16.7112 11.9746
94 2 3.7597 18.1713 11.9843
67 2 2.47 15.7323 11.8136
34 1 1.53624 15.5569 12.1443
114 3 7.66748 1.82522 0.960931
186 3 6.41744 1.09675 3.08124
141 3 5.20251 1.85519 0.984676
210 3 7.76603 1.8742 5.31924
237 3 5.08293 1.95553 5.27766
282 3 6.43618 1.02581 7.45186
333 3 5.07892 1.86742 9.37987
306 3 7.76967 1.84227 9.47199
22 1 6.46211 2.85216 13.0891
90 2 4.82966 2.26649 13.9283
47 1 7.09178 0.129188 11.6039
44 1 6.58784 0.88523 13.0782
60 1 4.15618 2.45941 13.255
9 1 7.10578 3.07744 11.6048
50 1 4.65075 2.86272 14.72
121 3 6.47111 4.16428 0.862261
189 3 7.76805 3.43827 3.00487
165 3 5.13222 3.35945 3.14358
149 3 6.37021 5.7949 3.02461
217 3 6.47517 4.22442 5.18196
245 3 6.47319 5.7315 7.31192
261 3 5.13017 3.46187 7.3529
286 3 7.7539 3.40165 7.446
313 3 6.39487 4.18501 9.41391
95 2 7.26895 3.35989 12.8509
54 1 7.50569 5.58935 13.1317
153 3 7.79126 8.08973 2.99335
181 3 5.09288 8.08669 3.06422
105 3 5.22968 6.56833 0.796435
109 3 6.45997 8.84509 0.896104
125 3 7.76184 6.49254 0.848496
221 3 7.8047 6.4506 5.21178
201 3 5.10393 6.48535 5.1759
205 3 6.47827 8.85575 5.25521
277 3 5.2007 8.10642 7.47182
249 3 7.8704 8.10386 7.3796
297 3 5.13581 6.47096 9.43518
317 3 7.83224 6.42788 9.37138
301 3 6.45752 8.82831 9.53749
96 2 7.73493 6.52078 12.9059
48 1 6.46486 7.89418 12.4095
81 2 6.43838 8.71164 11.8775
26 1 5.3676 9.01141 12.0349
40 1 8.05663 6.38138 11.9333
185 3 6.4323 10.3332 3.00189
142 3 5.09555 11.1952 1.11574
113 3 7.77904 11.2283 1.08777
209 3 7.79979 11.2098 5.27973
238 3 5.19015 11.175 5.24282
281 3 6.43401 10.4047 7.4086
305 3 7.8348 11.1453 9.54225
334 3 5.22395 11.0968 9.51619
74 2 7.88809 11.039 11.9374
33 1 7.3872 10.2962 12.2613
122 3 6.48042 13.5461 1.00165
190 3 7.806 12.6486 3.10895
166 3 5.05775 12.8875 3.10879
150 3 6.45808 15.0673 3.08908
218 3 6.54085 13.6355 5.28916
285 3 7.82645 12.694 7.43375
262 3 5.11006 12.7763 7.43513
246 3 6.41282 15.0638 7.39292
314 3 6.45189 13.5031 9.47376
93 2 6.43667 13.4028 11.962
25 1 4.6953 13.4164 11.8859
49 1 7.0295 14.2151 12.039
12 1 6.70115 12.5816 12.1925
126 3 7.78396 15.8368 0.9695
154 3 7.81695 17.382 3.02343
182 3 5.13686 17.4614 3.07042
106 3 5.02538 15.8569 0.929459
110 3 6.3693 18.1827 0.966257
222 3 7.85344 15.8421 5.18839
202 3 5.11946 15.8387 5.23502
206 3 6.44232 18.1646 5.22603
250 3 7.81764 17.3356 7.34312
278 3 5.11238 17.3883 7.35293
298 3 5.07872 15.8963 9.37449
318 3 7.80909 15.8246 9.55244
302 3 6.5276 18.2248 9.52102
14 1 7.32292 16.65 12.4183
65 2 7.86215 15.6448 12.2049
59 1 4.53283 18.3652 12.1465
68 2 6.77032 18.6251 12.6366
135 3 10.4675 1.77025 1.0047
179 3 11.8906 0.981762 3.00182
159 3 9.17814 1.08081 3.0447
231 3 10.5571 1.81288 5.1275
275 3 11.7552 1.01215 7.27996
254 3 9.06034 1.05495 7.3377
327 3 10.4388 1.76646 9.41399
13 1 10.4238 2.39285 12.2977
89 2 10.3878 1.54816 11.7999
19 1 9.55969 1.14743 12.1232
139 3 11.8634 4.2156 0.882854
163 3 10.4833 3.3069 2.99067
100 3 9.01377 4.19364 1.00239
172 3 9.08896 5.72398 3.02021
148 3 11.8258 5.75051 3.00957
235 3 11.8162 4.14712 5.17365
196 3 9.1999 4.17746 5.19673
244 3 11.8735 5.64742 7.37491
265 3 9.1134 5.73016 7.37263
259 3 10.5493 3.39211 7.40463
291 3 9.0491 4.18368 9.46532
331 3 11.7835 4.12694 9.43241
43 1 9.44839 3.99792 13.214
75 2 10.1663 4.17623 12.7018
32 1 9.95407 4.34442 11.8147
120 3 10.4305 6.52162 0.941233
176 3 10.4585 8.04346 3.03398
104 3 11.8753 8.85088 1.01709
132 3 9.24048 8.85916 0.913096
228 3 9.09278 8.85264 5.17448
216 3 10.4947 6.50708 5.18818
200 3 11.9262 8.84824 5.08713
272 3 10.535 8.09456 7.29029
312 3 10.4864 6.45824 9.42336
296 3 11.9068 8.81727 9.45558
324 3 9.25682 8.80479 9.39831
52 1 9.86272 7.17223 13.0222
70 2 10.438 7.58113 12.2667
23 1 9.89372 7.8977 11.3959
41 1 12.0212 6.6858 11.9853
136 3 10.4255 11.2334 1.03116
180 3 11.9176 10.4375 3.05024
160 3 9.18498 10.3651 3.0922
232 3 10.5261 11.1488 5.21206
276 3 11.8901 10.4229 7.32628
253 3 9.2191 10.4043 7.3521
328 3 10.4824 11.0852 9.5074
28 1 8.94644 11.0459 12.2394
45 1 11.6235 10.7281 13.1271
84 2 10.7585 11.1295 12.727
15 1 10.9273 11.2946 11.7868
140 3 11.8423 13.6065 1.03266
164 3 10.5505 12.6501 3.09075
99 3 9.21893 13.5061 1.00685
147 3 11.8717 15.0585 3.08199
171 3 9.18823 14.9765 3.13808
236 3 11.8856 13.5641 5.14374
195 3 9.28663 13.5005 5.25423
266 3 9.18873 15.0453 7.45715
260 3 10.5231 12.6843 7.44776
243 3 11.8021 15.1139 7.40234
332 3 11.8103 13.5239 9.44946
292 3 9.14406 13.5402 9.4811
76 2 11.9472 13.6102 11.9312
18 1 11.4557 14.4147 11.9123
53 1 11.4997 12.8146 12.3135
119 3 10.5391 15.7674 1.04346
175 3 10.5546 17.3651 3.04347
131 3 8.96806 18.24 1.05604
103 3 11.8881 18.1333 0.881103
215 3 10.5258 15.914 5.23234
199 3 11.8464 18.1869 5.16191
227 3 9.09242 18.1805 5.24179
271 3 10.5088 17.3647 7.33132
311 3 10.4358 15.8746 9.50675
323 3 9.14028 18.0871 9.4711
295 3 11.8268 18.1875 9.41741
7 1 11.1222 16.6209 12.0833
87 2 11.251 16.065 12.7681
4 1 11.972 16.396 13.5174
62 1 8.84753 15.8547 12.323
151 3 14.5213 1.17902 3.09733
107 3 13.1542 1.76115 0.939824
127 3 15.9231 1.8331 0.966936
223 3 15.8949 1.82897 5.23341
203 3 13.1674 1.90318 5.18392
247 3 14.545 1.02261 7.28456
319 3 15.8811 1.80464 9.45634
299 3 13.313 1.71962 9.46298
78 2 15.3772 1.18102 12.6476
24 1 14.8566 1.45144 11.848
30 1 15.9157 0.459967 12.1962
63 1 16.144 3.10243 12.8384
111 3 14.4374 4.20655 0.923984
155 3 15.8712 3.43515 3.01701
183 3 13.244 3.49872 3.03756
187 3 14.5726 5.76106 3.0094
207 3 14.5777 4.23756 5.26937
283 3 14.507 5.64047 7.29621
279 3 13.2717 3.3203 7.4058
251 3 15.9073 3.39177 7.40055
303 3 14.4792 4.11661 9.52603
46 1 13.071 6.05886 12.4294
55 1 13.4043 3.94558 12.0951
91 2 13.0328 4.23394 12.9961
2 1 12.1687 3.80899 13.0183
21 1 16.0871 4.01399 11.5863
115 3 15.8454 6.53483 0.963177
192 3 15.8902 8.09012 2.99124
168 3 13.2323 8.00615 3.03542
144 3 13.1764 6.54607 0.91681
124 3 14.5538 8.91875 0.967588
211 3 15.9214 6.55252 5.1665
240 3 13.1326 6.43224 5.16209
220 3 14.5057 8.75954 5.17898
287 3 15.9289 8.13374 7.24356
264 3 13.184 8.00434 7.29235
336 3 13.2292 6.51823 9.52872
307 3 15.8218 6.45787 9.3794
316 3 14.5472 8.78438 9.37995
29 1 15.6186 7.91917 12.7328
77 2 13.0274 6.67662 11.7772
10 1 14.1818 8.13583 12.5088
86 2 14.9141 8.57933 12.736
128 3 15.9353 11.2696 0.894394
152 3 14.513 10.409 3.02085
108 3 13.2878 11.2362 0.961892
224 3 15.9291 11.2343 5.09417
204 3 13.2489 11.2863 5.24843
248 3 14.5696 10.4398 7.36125
300 3 13.1787 11.2312 9.37835
320 3 15.8564 11.1542 9.42992
5 1 12.9583 9.6693 10.7086
79 2 15.8749 10.7086 11.5972
57 1 15.6762 9.96641 11.9841
112 3 14.6157 13.5424 0.973362
156 3 15.88 12.7484 3.02117
184 3 13.2491 12.7573 3.09726
188 3 14.5576 15.0735 2.92819
208 3 14.5833 13.5069 5.23582
280 3 13.1768 12.7547 7.33929
284 3 14.4952 15.1101 7.28627
252 3 15.8322 12.7462 7.31293
304 3 14.5414 13.4782 9.39813
88 2 14.5756 13.3384 11.8214
6 1 13.6681 13.2701 12.1637
37 1 15.3984 15.0922 12.1677
39 1 15.1287 12.4499 11.8016
116 3 15.9729 15.8866 0.963378
191 3 15.8456 17.4241 3.06217
167 3 13.2201 17.3831 2.91308
143 3 13.1919 15.8446 0.934373
123 3 14.6486 18.2159 0.81567
239 3 13.2372 15.8891 5.12466
212 3 15.865 15.8802 5.16539
219 3 14.5872 18.1737 5.16855
288 3 15.8721 17.3839 7.29509
263 3 13.1689 17.4029 7.40052
308 3 15.9367 15.8074 9.42575
335 3 13.1194 15.8911 9.44569
315 3 14.4566 18.1856 9.39283
64 1 15.4174 16.4664 12.1742
61 1 13.4446 17.6393 12.1178
82 2 13.8758 17.4389 12.9769
72 2 15.9887 15.8401 11.9018
51 1 13.9254 18.3553 13.2064
