ITEM: TIMESTEP
120000000
ITEM: NUMBER OF ATOMS
336
ITEM: BOX BOUNDS pp pp pp
0.0000000000000000e+00 1.6167135238600000e+01
0.0000000000000000e+00 1.8668199539200000e+01
0.0000000000000000e+00 2.5747400283800001e+01
ITEM: ATOMS id type x y z
117 3 2.48833 1.91025 1.062
145 3 3.73924 1.17158 3.17211
169 3 1.06835 1.11895 3.00387
213 3 2.43756 1.81656 5.19058
241 3 3.76171 1.05172 7.35828
267 3 0.979347 1.06736 7.36627
309 3 2.34273 1.83684 9.43945
60 1 4.01501 2.31642 13.2503
66 2 2.62124 2.36982 12.6362
3 1 2.93033 0.168195 12.2218
35 1 2.75508 2.55411 11.6551
8 1 1.90755 2.98622 12.7741
101 3 3.65748 4.19455 0.983946
173 3 2.35147 3.42705 3.08523
129 3 1.08811 4.15365 0.923098
157 3 0.969912 5.74186 3.07766
177 3 3.76743 5.71232 3.05113
197 3 3.72394 4.23447 5.25665
225 3 0.96059 4.18576 5.26244
255 3 1.07531 5.79204 7.31955
273 3 3.77775 5.70988 7.32195
269 3 2.4047 3.41468 7.36565
321 3 0.994509 4.23781 9.54098
293 3 3.64433 4.1058 9.49198
56 1 0.607302 5.60266 12.7977
20 1 3.75122 5.97726 11.7
71 2 0.256055 3.92337 12.622
69 2 3.84848 4.27132 16.102
1 1 3.10316 3.96708 16.6122
133 3 2.37304 6.56687 0.958422
161 3 2.47663 7.99661 2.99839
137 3 3.74818 8.90352 1.01313
98 3 1.11402 8.90903 0.946284
229 3 2.42782 6.54619 5.19597
194 3 1.11298 8.92481 5.22965
233 3 3.89491 8.81127 5.29726
257 3 2.43244 8.02674 7.36432
325 3 2.48598 6.47021 9.34502
289 3 1.02384 8.7224 9.31758
329 3 3.7301 8.73872 9.52539
80 2 0.97252 6.47034 12.6545
83 2 3.85722 9.16668 11.6681
11 1 0.820039 6.7304 11.7492
27 1 3.65678 8.30743 12.3127
73 2 3.6769 6.38586 12.6466
42 1 2.5973 6.49314 12.7973
118 3 2.48812 11.2064 1.04536
146 3 3.74462 10.4322 3.09477
170 3 0.990526 10.4493 3.0047
214 3 2.44196 11.2737 5.12247
268 3 1.02298 10.3846 7.26777
242 3 3.8298 10.345 7.41251
310 3 2.36578 11.1599 9.33079
16 1 0.7839 10.5953 11.8002
85 2 2.3713 11.0328 11.5221
31 1 3.17187 10.055 11.5334
17 1 2.80522 11.9922 11.7874
174 3 2.38759 12.7775 3.07026
130 3 1.16354 13.5594 1.00093
158 3 1.04672 15.1609 2.89863
178 3 3.75622 15.144 3.00187
102 3 3.82445 13.5718 0.920543
198 3 3.80321 13.4696 5.29936
226 3 1.07107 13.5538 5.14524
270 3 2.3885 12.7655 7.30833
256 3 1.04072 15.0008 7.31599
274 3 3.77552 15.0592 7.36299
322 3 1.02142 13.509 9.258
294 3 3.83012 13.4772 9.49481
38 1 3.73222 14.3396 12.1179
92 2 3.77986 13.4164 11.814
134 3 2.36867 15.9787 0.974372
162 3 2.43199 17.5465 3.03117
97 3 1.11092 18.2308 0.82697
138 3 3.81324 18.2044 1.0233
193 3 1.1072 18.2082 5.12835
230 3 2.39363 15.8301 5.09432
234 3 3.68476 18.1921 5.19154
258 3 2.39314 17.3553 7.3737
326 3 2.441 15.7842 9.36935
330 3 3.80542 18.1785 9.38263
290 3 1.02262 18.0723 9.42939
36 1 2.783 16.7402 11.9283
94 2 3.73909 18.161 12.0091
67 2 2.49178 15.7734 11.7997
34 1 1.61369 15.674 12.0476
114 3 7.68109 1.81668 0.934835
186 3 6.44586 1.07671 3.06614
141 3 5.20952 1.869 0.974315
210 3 7.77201 1.88786 5.3007
237 3 5.07974 1.94559 5.26927
282 3 6.41932 1.02548 7.43373
333 3 5.08794 1.87334 9.35752
306 3 7.7798 1.82353 9.47526
22 1 6.54555 2.89077 13.325
90 2 4.80335 2.25147 13.9307
44 1 6.59177 0.833235 12.8563
47 1 7.31717 0.092573 11.7223
50 1 4.67179 3.03111 14.5257
121 3 6.47794 4.16468 0.881816
189 3 7.76321 3.43132 3.00869
165 3 5.11534 3.36227 3.11344
149 3 6.35249 5.77045 3.00505
217 3 6.4665 4.21649 5.17862
245 3 6.47926 5.72232 7.31254
261 3 5.13914 3.47507 7.33213
286 3 7.74589 3.38981 7.44389
313 3 6.40495 4.18229 9.42627
95 2 7.28218 3.36088 12.8329
54 1 7.40868 5.63921 13.0847
9 1 7.06938 3.20776 11.8443
58 1 4.24615 5.14788 16.321
153 3 7.78348 8.07065 2.98574
181 3 5.09846 8.06679 3.08132
105 3 5.22662 6.56449 0.792692
109 3 6.4563 8.85218 0.893528
125 3 7.77087 6.49137 0.844703
221 3 7.81072 6.43619 5.22586
201 3 5.11296 6.49644 5.14053
205 3 6.48516 8.86863 5.25658
277 3 5.18511 8.09819 7.46777
249 3 7.89374 8.12014 7.36375
297 3 5.13914 6.46302 9.43566
317 3 7.84266 6.43174 9.34482
301 3 6.45893 8.80798 9.52497
81 2 6.39694 8.73225 11.8638
48 1 6.54501 7.89385 12.4533
96 2 7.70768 6.50957 12.8723
26 1 5.48392 9.01339 12.1598
40 1 8.04006 6.48234 11.925
185 3 6.42126 10.3233 3.01919
142 3 5.09016 11.2215 1.11062
113 3 7.78579 11.2304 1.06419
209 3 7.81427 11.2114 5.25969
238 3 5.17292 11.1912 5.25321
281 3 6.44278 10.4078 7.40641
305 3 7.82301 11.1294 9.5434
334 3 5.22791 11.0846 9.51019
74 2 7.84163 11.0729 11.9316
33 1 7.46811 10.1795 12.031
122 3 6.49985 13.5235 1.00282
190 3 7.80059 12.6414 3.08199
166 3 5.07531 12.8885 3.10489
150 3 6.45627 15.0623 3.08094
218 3 6.5447 13.6199 5.298
285 3 7.82793 12.7259 7.4458
262 3 5.12232 12.7648 7.42852
246 3 6.40686 15.0745 7.40661
314 3 6.4159 13.5053 9.45505
25 1 4.72283 13.5106 11.8975
49 1 6.95433 14.2735 12.2809
93 2 6.41906 13.3806 11.9987
12 1 6.69703 12.5562 12.17
126 3 7.75316 15.8263 0.947527
154 3 7.82195 17.3671 3.03223
182 3 5.15276 17.462 3.09221
106 3 5.02441 15.8503 0.94409
110 3 6.36163 18.1816 0.982107
206 3 6.45613 18.1753 5.23024
222 3 7.83556 15.8662 5.18184
202 3 5.13176 15.8111 5.25051
250 3 7.82838 17.3362 7.31436
278 3 5.1042 17.3817 7.3646
298 3 5.08508 15.8849 9.3524
318 3 7.78452 15.8381 9.54987
302 3 6.51746 18.2221 9.51387
59 1 4.6678 18.5718 12.1458
14 1 7.40978 16.6242 12.5352
68 2 6.76852 18.6109 12.6196
65 2 7.84911 15.6719 12.2119
135 3 10.4722 1.76608 1.00526
179 3 11.8801 0.989266 2.98511
159 3 9.17469 1.09894 3.04462
231 3 10.5445 1.82153 5.12942
275 3 11.7555 1.00205 7.28232
254 3 9.06072 1.07386 7.34516
327 3 10.4206 1.76582 9.40408
89 2 10.3844 1.58538 11.7249
19 1 9.35662 1.15013 12.192
13 1 10.4243 2.51181 12.2539
139 3 11.8663 4.23785 0.865925
163 3 10.4858 3.29888 2.97906
100 3 9.00198 4.19724 1.01194
172 3 9.07189 5.7372 3.00286
148 3 11.8266 5.75264 2.99599
235 3 11.8078 4.14611 5.17043
196 3 9.17719 4.15645 5.21023
244 3 11.9092 5.66158 7.3806
259 3 10.5326 3.41679 7.39625
265 3 9.13305 5.72911 7.36232
331 3 11.7615 4.12818 9.40966
291 3 9.07084 4.1788 9.45823
43 1 9.31819 4.08995 13.1911
75 2 10.1651 4.22764 12.7052
32 1 9.86286 4.55603 11.679
120 3 10.4465 6.51771 0.946486
176 3 10.4501 8.06138 3.03387
132 3 9.25514 8.84922 0.924923
104 3 11.8668 8.85588 1.019
216 3 10.4878 6.5181 5.16858
228 3 9.10919 8.85773 5.1738
200 3 11.9309 8.85215 5.09581
272 3 10.5182 8.08443 7.30327
312 3 10.4816 6.46346 9.43213
296 3 11.9141 8.82767 9.44557
324 3 9.24483 8.82069 9.41169
52 1 9.86094 7.25625 13.0086
70 2 10.388 7.56054 12.2732
23 1 9.98051 7.88119 11.4765
41 1 12.1064 6.86986 11.8021
136 3 10.4168 11.2285 1.02579
180 3 11.9167 10.4277 3.04698
160 3 9.19161 10.3628 3.06731
232 3 10.54 11.1472 5.2054
276 3 11.9095 10.4173 7.3091
253 3 9.18064 10.3965 7.34418
328 3 10.4942 11.0699 9.51209
28 1 8.78769 11.1761 12.2893
45 1 11.5386 10.5737 13.2226
84 2 10.7242 11.1104 12.678
15 1 10.9776 11.1709 11.7748
140 3 11.8373 13.598 1.04323
164 3 10.5283 12.6536 3.10555
99 3 9.2252 13.491 1.02518
171 3 9.18655 14.9745 3.14656
147 3 11.8637 15.0638 3.06075
236 3 11.8846 13.5551 5.17251
195 3 9.27959 13.4894 5.2668
266 3 9.1833 15.0667 7.44725
260 3 10.5267 12.6626 7.43459
243 3 11.7849 15.1015 7.40086
292 3 9.17256 13.5222 9.47208
332 3 11.8352 13.5423 9.44981
76 2 11.9357 13.6605 11.9097
18 1 11.3611 14.5481 12.1584
53 1 11.5663 12.7613 12.2501
119 3 10.5413 15.7673 1.04022
175 3 10.575 17.3686 3.04968
131 3 8.96772 18.2201 1.05049
103 3 11.8717 18.1395 0.909072
215 3 10.5051 15.9128 5.24285
199 3 11.849 18.1902 5.15103
227 3 9.09157 18.1975 5.2474
271 3 10.4918 17.3802 7.31925
311 3 10.4499 15.872 9.50857
323 3 9.13184 18.0803 9.47606
295 3 11.8204 18.1778 9.42023
87 2 11.2518 16.1182 12.8426
7 1 11.0278 16.7121 12.1064
4 1 11.832 16.6003 13.4782
62 1 8.81388 15.7832 12.3529
151 3 14.5404 1.17521 3.07939
107 3 13.1663 1.77767 0.944657
127 3 15.9089 1.81846 0.955449
223 3 15.892 1.8235 5.23308
203 3 13.1384 1.90357 5.18698
247 3 14.5453 1.00311 7.29754
319 3 15.8719 1.8324 9.44056
299 3 13.3097 1.73428 9.4776
78 2 15.3816 1.1479 12.5901
24 1 14.7925 1.4477 11.7892
30 1 15.9704 0.551313 12.1232
111 3 14.4411 4.21425 0.911471
155 3 15.8563 3.41931 3.02904
183 3 13.2441 3.51615 3.03644
187 3 14.5888 5.79311 3.02148
207 3 14.551 4.23236 5.23644
283 3 14.5058 5.64611 7.30825
279 3 13.2839 3.32335 7.40223
251 3 15.9013 3.38341 7.38987
303 3 14.483 4.1181 9.51699
46 1 13.1733 5.88614 12.347
91 2 13.0207 4.18632 12.9808
55 1 13.3894 3.88232 11.884
63 1 16.0135 3.17216 12.9033
21 1 16.0806 3.99481 11.6887
2 1 12.2704 3.70507 12.9231
115 3 15.8575 6.5272 0.97949
192 3 15.8714 8.08012 3.00566
168 3 13.2294 7.98835 3.04089
144 3 13.1437 6.54501 0.90547
124 3 14.523 8.9203 0.974371
211 3 15.9442 6.58153 5.14681
240 3 13.1323 6.43132 5.17907
220 3 14.51 8.7476 5.1824
287 3 15.9218 8.10068 7.25584
264 3 13.1824 7.99512 7.29628
307 3 15.8097 6.44319 9.35412
336 3 13.2279 6.50835 9.5423
316 3 14.5296 8.79813 9.38678
29 1 15.8305 7.89128 12.7313
77 2 12.9993 6.69982 11.818
10 1 14.1997 8.03891 12.3785
86 2 14.9767 8.59646 12.7446
152 3 14.5117 10.4116 3.01365
108 3 13.2604 11.2177 0.93915
128 3 15.9239 11.2782 0.889501
224 3 15.9016 11.2281 5.08711
204 3 13.2572 11.2757 5.24287
248 3 14.5798 10.4526 7.35557
300 3 13.1854 11.2468 9.36345
320 3 15.8622 11.1478 9.43399
5 1 12.8218 9.66281 10.8008
57 1 15.5933 9.82774 11.9621
79 2 15.859 10.7569 11.5835
39 1 15.0752 12.3719 11.671
112 3 14.616 13.5167 0.946235
156 3 15.873 12.7484 3.04295
184 3 13.2435 12.7608 3.09977
188 3 14.5629 15.0538 2.9202
208 3 14.5757 13.5015 5.23607
280 3 13.1716 12.7707 7.32965
284 3 14.4812 15.099 7.29638
252 3 15.8218 12.7397 7.31716
304 3 14.5231 13.5104 9.38235
88 2 14.5719 13.3608 11.8377
6 1 13.5898 13.1713 12.0274
37 1 15.3538 15.0118 12.106
116 3 15.9664 15.883 0.956518
191 3 15.8521 17.4288 3.0421
167 3 13.205 17.3943 2.91404
143 3 13.1694 15.8291 0.934173
123 3 14.6473 18.2047 0.832226
212 3 15.8908 15.8684 5.14854
239 3 13.2089 15.886 5.11438
219 3 14.5774 18.1695 5.16769
288 3 15.8816 17.3715 7.29298
263 3 13.1574 17.3938 7.39613
308 3 15.9274 15.813 9.40775
335 3 13.1085 15.902 9.44122
315 3 14.4504 18.1534 9.39818
82 2 13.8623 17.4525 12.9891
64 1 15.2591 16.5084 12.1566
72 2 15.9597 15.7779 11.866
61 1 13.4674 17.6283 11.9835
51 1 13.9736 18.4006 13.3005
