ITEM: TIMESTEP
120000000
ITEM: NUMBER OF ATOMS
336
ITEM: BOX BOUNDS pp pp pp
0.0000000000000000e+00 1.6167135238600000e+01
0.0000000000000000e+00 1.8668199539200000e+01
0.0000000000000000e+00 2.5747400283800001e+01
ITEM: ATOMS id type x y z
117 3 2.48814 1.90591 1.01664
145 3 3.7212 1.20078 3.17378
169 3 1.09433 1.10027 2.98563
213 3 2.40593 1.80009 5.17256
241 3 3.76693 1.04696 7.40576
267 3 0.976166 1.04858 7.36262
309 3 2.35538 1.83593 9.42148
35 1 2.8408 2.40983 11.7218
66 2 2.57888 2.34921 12.6156
3 1 3.20463 0.472799 12.2025
60 1 3.95899 2.37524 13.282
8 1 1.79598 2.8907 12.7741
101 3 3.65572 4.19684 0.967387
173 3 2.36875 3.4604 3.12066
129 3 1.08024 4.18347 0.941295
177 3 3.79315 5.7028 3.05102
157 3 0.994822 5.73674 3.11594
197 3 3.73525 4.24345 5.24692
225 3 0.938682 4.20527 5.23449
269 3 2.43632 3.40516 7.3523
255 3 1.0953 5.76072 7.34016
273 3 3.77294 5.70602 7.3288
321 3 0.993754 4.23681 9.55167
293 3 3.67938 4.10482 9.52963
56 1 0.678243 5.50745 12.8332
20 1 3.77138 5.79939 11.8754
71 2 0.281112 3.92182 12.6049
69 2 3.82307 4.20958 16.0685
1 1 3.0125 4.0389 16.7013
58 1 3.9183 5.1593 16.0894
133 3 2.37834 6.56182 0.994922
161 3 2.47285 7.99296 3.00414
137 3 3.73388 8.88611 1.01993
98 3 1.13087 8.90321 0.950631
229 3 2.41804 6.52785 5.19147
194 3 1.12143 8.92438 5.21551
233 3 3.87208 8.7838 5.27257
257 3 2.40841 8.03292 7.36123
325 3 2.49457 6.45422 9.36
329 3 3.74229 8.73732 9.53233
289 3 1.01065 8.69644 9.3134
80 2 1.02286 6.50788 12.6242
42 1 2.73437 6.37363 13.0668
27 1 3.5813 8.22043 11.9912
83 2 3.80745 9.15178 11.6649
73 2 3.70572 6.41549 12.6667
11 1 0.910138 6.59206 11.7869
118 3 2.46823 11.2202 1.0473
146 3 3.73808 10.4133 3.07691
170 3 1.02062 10.4454 3.02122
214 3 2.41532 11.2877 5.12742
268 3 1.02147 10.4061 7.26996
242 3 3.80009 10.3406 7.42543
310 3 2.34436 11.1432 9.30926
16 1 0.803018 10.7395 11.9333
85 2 2.37086 11.0395 11.5771
31 1 3.23365 10.1082 11.7224
17 1 3.03288 11.895 11.7095
102 3 3.80168 13.5658 0.927845
174 3 2.37527 12.8066 3.06958
130 3 1.13707 13.5786 1.01312
178 3 3.77332 15.1414 3.01382
158 3 1.0585 15.1573 2.90545
198 3 3.79924 13.5001 5.29968
226 3 1.09095 13.5349 5.17867
270 3 2.387 12.7442 7.32762
256 3 1.05039 15.0342 7.3313
274 3 3.77363 15.0528 7.35857
322 3 0.985125 13.5327 9.26646
294 3 3.83772 13.4713 9.50554
38 1 3.36906 14.3518 12.104
92 2 3.76442 13.4388 11.8225
134 3 2.35098 15.9671 0.980106
162 3 2.43929 17.5266 3.03185
97 3 1.10915 18.2488 0.841111
138 3 3.79907 18.2162 1.00779
230 3 2.38581 15.8309 5.10256
193 3 1.12084 18.1927 5.14806
234 3 3.68994 18.1853 5.19595
258 3 2.39884 17.3617 7.39078
326 3 2.46043 15.8109 9.36363
330 3 3.80583 18.1743 9.39132
290 3 1.03081 18.0776 9.4256
36 1 2.80774 16.5111 11.9089
67 2 2.44071 15.7354 11.8241
94 2 3.70201 18.1742 11.9817
34 1 1.44898 15.6527 12.1205
114 3 7.67044 1.82422 0.956721
186 3 6.40976 1.1039 3.08824
141 3 5.19275 1.84509 0.9905
210 3 7.76559 1.87438 5.31258
237 3 5.0854 1.94607 5.28911
282 3 6.43629 1.02848 7.45063
333 3 5.07527 1.88531 9.38109
306 3 7.77749 1.83349 9.4711
90 2 4.80426 2.27057 13.945
44 1 6.57723 0.777535 13.1148
47 1 7.02625 0.0858506 11.6233
22 1 6.39353 2.92519 13.1527
50 1 4.70963 2.88736 14.7608
121 3 6.46995 4.16237 0.868529
189 3 7.76736 3.43883 3.00516
165 3 5.11541 3.36878 3.13443
149 3 6.38531 5.80763 3.01542
217 3 6.4759 4.22956 5.17804
245 3 6.47008 5.72325 7.30717
261 3 5.12106 3.46057 7.34659
286 3 7.75111 3.39324 7.45126
313 3 6.39407 4.18411 9.40796
9 1 7.18163 3.13244 11.7647
54 1 7.4365 5.5428 13.3853
95 2 7.30059 3.37088 12.877
153 3 7.79783 8.09033 2.99185
181 3 5.09644 8.08958 3.07274
105 3 5.23291 6.5738 0.790079
109 3 6.45963 8.8394 0.901974
125 3 7.77381 6.50461 0.864034
221 3 7.79352 6.45509 5.22231
201 3 5.10043 6.48243 5.16354
205 3 6.49489 8.8605 5.25955
277 3 5.21865 8.1039 7.47991
249 3 7.87483 8.10755 7.38323
301 3 6.45478 8.80916 9.54063
317 3 7.81926 6.43524 9.3697
297 3 5.13714 6.47435 9.44545
96 2 7.70772 6.46922 12.9233
48 1 6.3459 7.8617 12.3571
81 2 6.40419 8.75307 11.8787
26 1 5.42752 9.09965 11.9805
185 3 6.43493 10.3211 2.99545
142 3 5.099 11.1912 1.10758
113 3 7.76402 11.2195 1.07497
209 3 7.80715 11.1924 5.27236
238 3 5.18638 11.1888 5.24322
281 3 6.43182 10.4101 7.41749
334 3 5.23407 11.0732 9.51288
305 3 7.83616 11.1481 9.55143
33 1 7.36425 10.2589 12.2621
74 2 7.88828 11.0414 11.9069
122 3 6.49317 13.5482 0.9975
190 3 7.80054 12.6485 3.11175
166 3 5.06211 12.8985 3.10374
150 3 6.44704 15.0837 3.08452
218 3 6.5428 13.6382 5.31031
285 3 7.83626 12.6891 7.45184
262 3 5.1089 12.7722 7.43603
246 3 6.41225 15.0513 7.39785
314 3 6.45987 13.5076 9.4927
93 2 6.46127 13.3894 11.9545
25 1 4.68806 13.3092 11.9271
49 1 6.96409 14.1849 12.0185
12 1 6.85281 12.5649 11.9547
126 3 7.78462 15.8426 0.962608
154 3 7.81864 17.3826 3.02763
182 3 5.13319 17.4462 3.066
106 3 5.04297 15.857 0.919581
110 3 6.38345 18.185 0.967408
222 3 7.86052 15.839 5.20127
202 3 5.12194 15.8253 5.23907
206 3 6.4402 18.1698 5.22154
250 3 7.82069 17.3487 7.34609
278 3 5.1146 17.3886 7.3533
318 3 7.80211 15.8196 9.55737
298 3 5.07297 15.9023 9.3706
302 3 6.51693 18.2261 9.5285
14 1 7.24139 16.5277 12.2496
65 2 7.82515 15.6651 12.2059
59 1 4.69224 18.3976 12.0269
68 2 6.7647 18.6174 12.6244
135 3 10.4741 1.75409 0.994623
179 3 11.91 0.980804 2.98709
159 3 9.17803 1.07942 3.05294
231 3 10.5433 1.82248 5.14343
275 3 11.768 0.998599 7.29159
254 3 9.05432 1.05432 7.33577
327 3 10.4347 1.76402 9.40135
13 1 10.4973 2.51437 12.2266
19 1 9.60369 1.01778 12.1068
89 2 10.3902 1.55773 11.7978
139 3 11.8532 4.2266 0.857808
163 3 10.4848 3.31968 3.00064
100 3 9.00349 4.19697 1.01091
172 3 9.09717 5.71337 3.01721
148 3 11.8294 5.74318 3.00169
235 3 11.8084 4.16023 5.16428
196 3 9.20543 4.16872 5.19158
244 3 11.8804 5.6441 7.39921
265 3 9.11898 5.72824 7.37036
259 3 10.5503 3.39225 7.40072
291 3 9.05834 4.18549 9.45457
331 3 11.7833 4.11804 9.43089
43 1 9.32995 3.8654 13.0915
75 2 10.1512 4.18901 12.6983
32 1 9.89832 4.29096 11.8411
120 3 10.4369 6.5155 0.941454
176 3 10.4707 8.04484 3.03354
104 3 11.8663 8.85828 1.01143
132 3 9.22755 8.86359 0.918146
216 3 10.5125 6.50156 5.19223
200 3 11.9364 8.85422 5.0894
228 3 9.09509 8.84927 5.17418
272 3 10.5437 8.10729 7.28002
312 3 10.4877 6.46842 9.41431
296 3 11.9019 8.81772 9.468
324 3 9.24495 8.80114 9.40738
52 1 9.86435 7.16915 13.0483
70 2 10.4617 7.58088 12.274
23 1 9.8082 7.89498 11.612
41 1 12.036 6.71126 12.0493
40 1 8.12121 6.25451 12.0046
136 3 10.4309 11.234 1.03548
180 3 11.9017 10.4332 3.05753
160 3 9.16783 10.3483 3.08072
232 3 10.5499 11.1731 5.22086
276 3 11.9113 10.4353 7.32348
253 3 9.22612 10.4114 7.35845
328 3 10.4794 11.0856 9.49984
45 1 11.5272 10.5322 13.0398
28 1 9.04255 11.0028 12.1903
84 2 10.7415 11.162 12.7422
15 1 10.9932 11.3496 11.8569
140 3 11.8357 13.6235 1.0457
164 3 10.5405 12.6508 3.10043
99 3 9.20953 13.5044 1.00456
171 3 9.19324 14.9865 3.15688
147 3 11.8634 15.0566 3.07991
236 3 11.8769 13.5688 5.14863
195 3 9.30049 13.5124 5.25417
266 3 9.18693 15.0561 7.45782
243 3 11.8095 15.1158 7.39642
260 3 10.5207 12.6987 7.4454
292 3 9.1504 13.5463 9.48737
332 3 11.8088 13.5379 9.44615
76 2 11.9171 13.6126 11.9316
18 1 11.4972 14.4934 12.0677
53 1 11.4806 12.8599 12.342
119 3 10.5446 15.7748 1.03671
175 3 10.5459 17.3634 3.03637
131 3 8.97343 18.2467 1.05214
103 3 11.8901 18.145 0.880403
215 3 10.5163 15.9016 5.24052
199 3 11.8441 18.1743 5.17057
227 3 9.08562 18.1787 5.23929
271 3 10.4903 17.3695 7.33414
311 3 10.4367 15.8813 9.51669
323 3 9.14456 18.0833 9.46881
295 3 11.8247 18.1863 9.42364
87 2 11.2534 16.0738 12.8139
7 1 11.2276 16.552 11.9616
4 1 11.8539 16.3029 13.5745
62 1 8.80288 15.856 12.3204
151 3 14.517 1.2001 3.10443
107 3 13.1547 1.76466 0.950499
127 3 15.9128 1.85591 0.962499
223 3 15.9095 1.83078 5.24024
203 3 13.1728 1.90116 5.18918
247 3 14.5599 1.02296 7.2855
319 3 15.8792 1.82749 9.45618
299 3 13.3039 1.72443 9.47258
78 2 15.3329 1.20597 12.6548
24 1 14.7385 1.48443 11.9914
30 1 15.9164 0.595818 12.2512
63 1 16.1373 3.02869 12.8264
111 3 14.4407 4.19683 0.913056
155 3 15.8806 3.43656 3.02556
183 3 13.2368 3.50335 3.02073
187 3 14.5666 5.76088 2.9935
207 3 14.5716 4.24637 5.26102
283 3 14.5014 5.65074 7.29719
279 3 13.2621 3.3251 7.39766
251 3 15.9101 3.398 7.3996
303 3 14.4849 4.09926 9.52509
46 1 13.0791 6.03817 12.5268
91 2 13.0573 4.253 12.9789
55 1 13.3603 3.93894 12.0989
2 1 12.1483 3.94608 13.1152
21 1 15.9985 3.87764 11.7066
115 3 15.8517 6.55231 0.963344
192 3 15.8883 8.0769 2.98687
168 3 13.2293 7.99722 3.03453
144 3 13.1911 6.54348 0.907886
124 3 14.5563 8.90803 0.963661
211 3 15.9278 6.54797 5.15663
240 3 13.1284 6.44015 5.16949
220 3 14.5075 8.75852 5.17052
287 3 15.9235 8.14493 7.24053
264 3 13.2053 8.01581 7.29476
307 3 15.8251 6.45469 9.37129
316 3 14.5468 8.80173 9.37214
336 3 13.241 6.51718 9.50308
86 2 14.8891 8.62768 12.7319
10 1 14.1748 8.03783 12.3912
77 2 13.0381 6.6807 11.8117
29 1 15.5967 7.97561 12.6728
128 3 15.9391 11.272 0.891337
152 3 14.5178 10.4255 3.03631
108 3 13.2787 11.2232 0.962895
224 3 15.9485 11.224 5.10122
204 3 13.264 11.2753 5.25673
248 3 14.5642 10.4388 7.36358
320 3 15.844 11.1621 9.42599
300 3 13.1721 11.2462 9.36217
5 1 13.0479 9.66107 10.7941
57 1 15.5043 10.0115 11.9638
79 2 15.8767 10.7022 11.5991
112 3 14.6215 13.5387 0.984905
156 3 15.8656 12.7555 3.02081
184 3 13.2446 12.7382 3.09556
188 3 14.5559 15.0641 2.92575
208 3 14.5684 13.5066 5.23488
280 3 13.1703 12.7588 7.34671
284 3 14.4928 15.1076 7.2737
252 3 15.8392 12.7537 7.30437
304 3 14.5439 13.4981 9.39714
6 1 13.6354 13.2583 12.102
88 2 14.5723 13.3354 11.8458
37 1 15.5508 15.1505 12.1258
39 1 14.9931 12.4765 11.8444
116 3 15.9663 15.8989 0.975054
191 3 15.8495 17.4326 3.0727
167 3 13.2249 17.3762 2.90851
143 3 13.2071 15.845 0.936366
123 3 14.6639 18.2217 0.816056
239 3 13.2359 15.8899 5.12846
212 3 15.8685 15.8945 5.17029
219 3 14.5796 18.1666 5.17559
288 3 15.8778 17.3844 7.29125
263 3 13.1645 17.3918 7.40804
335 3 13.0959 15.8979 9.44671
308 3 15.9121 15.8019 9.4281
315 3 14.4437 18.1692 9.4041
82 2 13.9179 17.4205 13.0126
64 1 15.4395 16.536 12.2019
51 1 13.9165 18.3668 13.3155
61 1 13.4275 17.4818 12.2072
72 2 15.9904 15.8117 11.8961
