ITEM: TIMESTEP
120000000
ITEM: NUMBER OF ATOMS
336
ITEM: BOX BOUNDS pp pp pp
0.0000000000000000e+00 1.6167135238600000e+01
0.0000000000000000e+00 1.8668199539200000e+01
0.0000000000000000e+00 2.5747400283800001e+01
ITEM: ATOMS id type x y z
117 3 2.52546 1.93788 1.03919
145 3 3.72539 1.18507 3.17362
169 3 1.10348 1.11502 3.00423
213 3 2.40505 1.8256 5.20054
267 3 0.983019 1.03296 7.35174
241 3 3.80284 1.01878 7.38517
309 3 2.35903 1.84253 9.42016
3 1 3.1705 0.252802 12.2089
35 1 3.08545 2.53757 11.6045
66 2 2.63998 2.36026 12.6103
60 1 3.89663 2.15488 13.4076
8 1 1.76183 3.03876 12.7982
63 1 0.0471064 2.97089 12.9802
101 3 3.65403 4.20849 0.953266
173 3 2.35623 3.4669 3.14229
129 3 1.08005 4.18076 0.93348
157 3 0.990354 5.74565 3.1056
177 3 3.80777 5.69395 3.06008
197 3 3.73254 4.24515 5.25611
225 3 0.945419 4.19991 5.20739
255 3 1.07969 5.76526 7.30842
273 3 3.78201 5.69709 7.34669
269 3 2.44218 3.36843 7.3857
321 3 1.00589 4.20506 9.51428
293 3 3.66861 4.09026 9.5056
56 1 0.78458 5.47032 12.6228
71 2 0.296686 3.95989 12.5695
20 1 3.51683 5.58825 11.8764
42 1 2.58009 6.14733 12.8455
1 1 3.44518 3.94639 16.7953
69 2 3.86269 4.2901 16.0439
58 1 3.73353 5.19476 16.2583
133 3 2.40428 6.54448 0.999061
161 3 2.49074 7.98047 2.9862
137 3 3.74362 8.90454 1.00939
98 3 1.09104 8.89425 0.942686
229 3 2.42427 6.53136 5.20745
194 3 1.12669 8.94154 5.21984
233 3 3.86679 8.79167 5.2377
257 3 2.418 8.0246 7.35324
325 3 2.47134 6.45797 9.3341
329 3 3.73733 8.73517 9.54013
289 3 0.987701 8.69414 9.31493
11 1 1.06798 6.79059 11.5988
83 2 3.80615 9.18484 11.63
80 2 0.987545 6.45439 12.5948
27 1 3.45444 8.27839 12.0365
73 2 3.65385 6.37201 12.6491
118 3 2.46055 11.2133 1.01066
146 3 3.75926 10.4006 3.05457
170 3 1.02421 10.4308 3.02864
214 3 2.42556 11.2814 5.15055
268 3 1.02539 10.422 7.24816
242 3 3.79497 10.3667 7.40075
310 3 2.3572 11.1316 9.32423
85 2 2.31964 11.0961 11.5594
16 1 0.712264 10.9072 11.9678
31 1 2.9972 10.1364 11.6121
17 1 2.9913 12.0717 11.7655
174 3 2.36777 12.7833 3.03966
130 3 1.15407 13.6122 0.993923
158 3 1.07174 15.1494 2.88879
178 3 3.75899 15.1377 3.01239
102 3 3.8116 13.5469 0.942417
226 3 1.07599 13.5215 5.16738
198 3 3.8079 13.4901 5.30595
270 3 2.39718 12.7557 7.3083
256 3 1.04137 15.0337 7.32113
274 3 3.7891 15.0824 7.35816
294 3 3.83435 13.4869 9.51761
322 3 0.994245 13.5278 9.26752
38 1 3.26729 14.3302 11.956
92 2 3.73453 13.4066 11.7903
134 3 2.3837 15.9681 0.953398
162 3 2.41707 17.5313 2.99105
97 3 1.10216 18.2555 0.846545
138 3 3.79722 18.2052 1.02575
230 3 2.43952 15.819 5.10674
193 3 1.10297 18.1801 5.14346
234 3 3.68675 18.1554 5.20032
258 3 2.40483 17.3551 7.39159
326 3 2.436 15.7965 9.3549
290 3 1.03261 18.0932 9.42495
330 3 3.8055 18.1739 9.41926
36 1 2.71839 16.6013 11.9574
34 1 1.4744 15.8425 12.1001
67 2 2.41873 15.685 11.9012
94 2 3.7671 18.1846 11.9577
114 3 7.67341 1.79868 0.949646
186 3 6.40745 1.08876 3.0789
141 3 5.16852 1.84996 1.0011
210 3 7.77626 1.86335 5.28688
237 3 5.08266 1.94586 5.27386
282 3 6.44055 0.986862 7.44907
333 3 5.07681 1.88485 9.40689
306 3 7.79352 1.83816 9.51288
50 1 4.58987 2.75576 14.682
44 1 6.66852 0.824312 13.058
90 2 4.77264 2.14935 13.9621
47 1 7.25238 0.105216 11.6547
22 1 6.33709 2.96264 13.1073
121 3 6.44407 4.15167 0.866314
189 3 7.79242 3.44227 3.02153
165 3 5.12614 3.35548 3.13131
149 3 6.34973 5.80009 3.00836
217 3 6.46269 4.22372 5.18526
245 3 6.47498 5.73449 7.29003
261 3 5.10341 3.45254 7.31374
286 3 7.73966 3.38256 7.44446
313 3 6.43093 4.19266 9.45136
95 2 7.34238 3.31286 12.8895
54 1 7.491 5.67454 13.4214
9 1 7.26574 3.25676 11.9889
125 3 7.79101 6.49874 0.858726
153 3 7.76905 8.06026 2.97886
181 3 5.10388 8.10391 3.09087
105 3 5.224 6.53562 0.786934
109 3 6.47531 8.86866 0.872696
205 3 6.5078 8.84064 5.25461
221 3 7.7928 6.44865 5.22481
201 3 5.08808 6.48199 5.15459
249 3 7.87412 8.11465 7.34235
277 3 5.1916 8.0579 7.47238
297 3 5.11125 6.47317 9.45423
301 3 6.48116 8.79815 9.54376
317 3 7.82125 6.43133 9.36098
48 1 6.51562 7.91873 12.2532
96 2 7.61842 6.57374 12.8704
81 2 6.37334 8.79389 11.792
26 1 5.53096 9.20887 12.0159
185 3 6.38005 10.3682 3.02261
142 3 5.11967 11.173 1.10234
113 3 7.79489 11.2321 1.01913
209 3 7.79908 11.1878 5.29067
238 3 5.18429 11.1971 5.26346
281 3 6.44018 10.3965 7.42149
334 3 5.21941 11.0973 9.50524
305 3 7.87233 11.1322 9.52813
33 1 7.24212 10.2247 12.2375
74 2 7.89818 11.0714 11.99
122 3 6.47598 13.5196 0.977635
190 3 7.77933 12.6757 3.12946
166 3 5.08764 12.8899 3.11718
150 3 6.46118 15.0745 3.0837
218 3 6.53799 13.594 5.31753
285 3 7.84263 12.7075 7.46395
262 3 5.10144 12.7658 7.41964
246 3 6.39628 15.0462 7.41009
314 3 6.44476 13.4821 9.47347
49 1 7.16058 14.1441 12.0423
93 2 6.42248 13.4376 11.9987
25 1 4.67603 13.4996 11.8219
12 1 6.95683 12.6722 12.1472
126 3 7.78697 15.8366 0.939523
154 3 7.79598 17.3745 3.00103
182 3 5.14995 17.4531 3.07064
106 3 5.05399 15.8658 0.92104
110 3 6.3839 18.2022 0.963214
222 3 7.8617 15.8477 5.18296
202 3 5.13442 15.8335 5.21981
206 3 6.45638 18.1671 5.23786
250 3 7.79541 17.3412 7.31437
278 3 5.13711 17.3613 7.35029
318 3 7.7914 15.7933 9.56134
298 3 5.10442 15.8892 9.39052
302 3 6.52338 18.2125 9.51218
65 2 7.84475 15.6452 12.204
14 1 7.29177 16.35 12.3911
68 2 6.73706 18.5561 12.6799
59 1 4.72582 18.3455 12.2517
135 3 10.4859 1.7124 1.01851
179 3 11.9211 0.956146 2.9913
159 3 9.17916 1.09123 3.03233
231 3 10.5711 1.82448 5.12345
275 3 11.7451 1.02576 7.27652
254 3 9.05619 1.05457 7.36747
327 3 10.4348 1.74931 9.41833
13 1 10.2716 2.49968 12.1901
89 2 10.3506 1.56777 11.7502
19 1 9.5441 1.08129 11.9935
163 3 10.4929 3.29775 2.99322
100 3 9.02033 4.21292 1.00606
172 3 9.11633 5.71664 3.02064
148 3 11.841 5.74996 3.0157
139 3 11.8763 4.21071 0.892026
235 3 11.824 4.16421 5.1728
196 3 9.19816 4.15733 5.21796
244 3 11.8963 5.66113 7.39474
265 3 9.13245 5.74564 7.37069
259 3 10.5427 3.42692 7.39001
331 3 11.7936 4.12278 9.41178
291 3 9.04968 4.16416 9.45885
43 1 9.21778 3.96795 13.0233
75 2 10.1625 4.16719 12.7335
32 1 10.0006 4.50913 11.7313
2 1 11.984 4.14218 13.1657
120 3 10.4213 6.49557 0.956594
176 3 10.4529 8.03245 3.04713
104 3 11.8816 8.82953 1.0162
132 3 9.22431 8.88024 0.943933
216 3 10.5205 6.53754 5.19539
200 3 11.9328 8.87043 5.09556
228 3 9.12525 8.85923 5.17343
272 3 10.5251 8.08007 7.26997
312 3 10.4636 6.49115 9.38783
296 3 11.8828 8.81941 9.46906
324 3 9.24972 8.81881 9.39194
52 1 9.91769 7.45833 13.115
70 2 10.4735 7.61276 12.3604
23 1 10.1177 7.79535 11.5041
40 1 8.34055 6.3556 12.2112
41 1 12.0636 7.07672 11.9578
136 3 10.4263 11.2144 1.03831
180 3 11.9148 10.434 3.0432
160 3 9.1895 10.3493 3.06954
232 3 10.5678 11.1511 5.21777
276 3 11.9088 10.4314 7.34684
253 3 9.24632 10.3973 7.36961
328 3 10.4931 11.097 9.48842
28 1 8.75075 11.0239 12.4351
84 2 10.7954 11.2497 12.8001
45 1 11.5242 10.6158 12.9426
15 1 10.7117 11.1886 11.8064
140 3 11.8468 13.625 1.04292
164 3 10.5326 12.6272 3.09885
99 3 9.20181 13.5017 1.00196
147 3 11.8637 15.0348 3.08132
171 3 9.19073 15.0024 3.16674
236 3 11.9009 13.567 5.15249
195 3 9.27196 13.4753 5.24033
260 3 10.5226 12.6928 7.44626
266 3 9.201 15.0767 7.45378
243 3 11.8066 15.102 7.36499
332 3 11.804 13.5344 9.42526
292 3 9.14969 13.5362 9.50484
76 2 11.9208 13.6321 11.9381
18 1 11.6355 14.5209 12.1012
53 1 11.4029 12.8702 12.4877
119 3 10.5313 15.7644 1.04287
175 3 10.5122 17.3536 3.03241
131 3 8.98143 18.1987 1.03818
103 3 11.8909 18.1445 0.91372
215 3 10.4962 15.9189 5.20997
199 3 11.8826 18.1855 5.17645
227 3 9.10427 18.2092 5.26532
271 3 10.4645 17.3834 7.33206
311 3 10.4539 15.8782 9.50468
323 3 9.11967 18.1057 9.47241
295 3 11.8063 18.2046 9.44482
7 1 11.063 16.5916 12.0129
87 2 11.2549 16.0361 12.8187
4 1 11.9361 16.453 13.4276
62 1 8.8331 15.7888 12.1663
151 3 14.4982 1.20203 3.07486
107 3 13.1353 1.76167 0.961018
127 3 15.8862 1.84137 0.96765
223 3 15.8839 1.85706 5.23621
203 3 13.1731 1.9077 5.18342
247 3 14.5509 1.00505 7.27081
319 3 15.8436 1.83124 9.45394
299 3 13.3092 1.72145 9.4471
78 2 15.3143 1.1984 12.7126
24 1 14.8099 1.4847 11.8947
30 1 15.7076 0.376742 12.3583
111 3 14.4206 4.19995 0.892722
155 3 15.8611 3.43024 3.05484
183 3 13.2466 3.51195 3.01254
187 3 14.5748 5.7685 2.99574
207 3 14.5446 4.24694 5.21916
283 3 14.5112 5.66211 7.31326
279 3 13.2675 3.35823 7.3945
251 3 15.9056 3.40374 7.39283
303 3 14.4626 4.08005 9.50714
91 2 13.0283 4.20593 12.9882
46 1 13.0034 5.93659 12.4489
55 1 13.1662 3.56805 12.0967
21 1 16.124 3.87372 11.5323
115 3 15.8621 6.53204 0.964606
192 3 15.8847 8.08763 2.99954
168 3 13.239 8.0155 3.02006
144 3 13.1805 6.53843 0.909727
124 3 14.5104 8.90882 0.980601
211 3 15.9576 6.5523 5.17367
240 3 13.1561 6.42703 5.18676
220 3 14.5056 8.73728 5.18066
287 3 15.9193 8.12308 7.2512
264 3 13.2102 8.00944 7.29181
307 3 15.8294 6.46394 9.37969
336 3 13.2683 6.49955 9.53128
316 3 14.5185 8.79786 9.38517
86 2 14.939 8.61687 12.7322
10 1 14.1724 8.06388 12.4378
77 2 13.0142 6.64978 11.8477
29 1 15.7626 8.1412 12.6615
128 3 15.9045 11.2379 0.880443
152 3 14.54 10.4421 3.03802
108 3 13.2439 11.2191 0.97117
224 3 15.9494 11.2484 5.11595
204 3 13.247 11.2603 5.2474
248 3 14.5703 10.4287 7.33815
320 3 15.8542 11.1489 9.45009
300 3 13.2037 11.2457 9.33744
5 1 12.868 9.56757 10.4802
79 2 15.8541 10.7517 11.6665
57 1 15.4721 9.84845 12.1399
39 1 14.9095 12.2701 11.7193
112 3 14.6278 13.559 0.995274
156 3 15.8807 12.7406 3.01001
184 3 13.2661 12.7597 3.10033
188 3 14.5581 15.0797 2.91327
208 3 14.5594 13.505 5.21101
280 3 13.1527 12.7638 7.3259
284 3 14.4774 15.1376 7.29298
252 3 15.8519 12.7596 7.30299
304 3 14.5313 13.4824 9.3983
88 2 14.5462 13.4442 11.856
6 1 13.5721 13.3281 12.0968
37 1 15.5481 14.9884 12.185
116 3 15.98 15.8983 0.951138
191 3 15.8531 17.4165 3.06134
167 3 13.2108 17.3927 2.93589
143 3 13.1669 15.8571 0.935794
123 3 14.6793 18.2214 0.844821
239 3 13.2222 15.8749 5.12043
212 3 15.9099 15.8668 5.13931
219 3 14.5489 18.1639 5.17869
288 3 15.8927 17.3945 7.30234
263 3 13.1316 17.3917 7.3774
335 3 13.107 15.9043 9.45323
308 3 15.9162 15.7842 9.4479
315 3 14.4762 18.175 9.40849
64 1 15.5538 16.688 11.9988
82 2 13.9444 17.457 12.9587
72 2 15.907 15.8247 11.8706
61 1 13.2997 17.4369 12.1743
51 1 13.8781 18.247 13.4454
