ITEM: TIMESTEP
120000000
ITEM: NUMBER OF ATOMS
336
ITEM: BOX BOUNDS pp pp pp
0.0000000000000000e+00 1.6167135238600000e+01
0.0000000000000000e+00 1.8668199539200000e+01
0.0000000000000000e+00 2.5747400283800001e+01
ITEM: ATOMS id type x y z
117 3 2.52932 1.94586 1.03746
145 3 3.73045 1.1908 3.16599
169 3 1.08794 1.10644 3.00852
213 3 2.40006 1.81761 5.21086
267 3 1.00543 1.03143 7.35451
241 3 3.80262 1.03566 7.37253
309 3 2.35474 1.84945 9.41116
35 1 3.08194 2.47024 11.6966
66 2 2.61574 2.28859 12.5893
3 1 3.02255 0.183319 12.2838
60 1 4.01888 2.23991 13.3358
8 1 1.80813 3.03222 12.7664
101 3 3.65481 4.20422 0.959356
173 3 2.35301 3.46675 3.16249
129 3 1.08875 4.17631 0.934725
157 3 0.983146 5.7394 3.09724
177 3 3.80775 5.71689 3.06288
197 3 3.73845 4.24658 5.25295
225 3 0.939209 4.1986 5.22186
255 3 1.08857 5.77184 7.31481
273 3 3.79023 5.68989 7.34831
269 3 2.42237 3.37665 7.38794
321 3 1.01034 4.21783 9.52096
293 3 3.68322 4.09093 9.51183
56 1 0.691343 5.62196 12.6672
20 1 3.64374 5.52872 11.9315
71 2 0.304598 3.96815 12.549
21 1 0.0988753 3.85678 11.5185
42 1 2.59743 6.15185 12.9737
69 2 3.83985 4.32736 16.0649
1 1 3.404 4.01177 16.8175
58 1 3.95175 5.21011 16.3635
133 3 2.40157 6.53625 1.00956
161 3 2.48262 7.98456 2.99134
137 3 3.75255 8.91082 1.00462
98 3 1.07974 8.88606 0.9362
229 3 2.41859 6.53142 5.19966
194 3 1.11972 8.93562 5.2244
233 3 3.87092 8.78659 5.23203
257 3 2.43437 8.01857 7.35114
325 3 2.46103 6.45004 9.34972
329 3 3.73833 8.73378 9.54534
289 3 0.987277 8.6982 9.33035
73 2 3.6368 6.37015 12.6885
27 1 3.35261 8.13013 11.924
11 1 0.982538 6.66051 11.6948
80 2 0.962449 6.50252 12.6129
83 2 3.80309 9.17466 11.6518
118 3 2.48242 11.2059 0.998265
146 3 3.76051 10.3875 3.06491
170 3 1.03134 10.4234 3.02955
214 3 2.42843 11.2746 5.14768
268 3 1.0395 10.413 7.23635
242 3 3.79414 10.3584 7.40816
310 3 2.35587 11.1307 9.32234
31 1 2.9831 10.0379 11.5985
16 1 0.50605 11.0391 12.1301
85 2 2.32952 11.0958 11.599
17 1 2.96808 11.9674 11.6915
174 3 2.39167 12.7849 3.05022
130 3 1.16041 13.5987 0.994456
178 3 3.77769 15.1306 3.00776
158 3 1.06573 15.1619 2.88263
102 3 3.82055 13.544 0.940412
198 3 3.80758 13.4783 5.3074
226 3 1.07922 13.5265 5.15739
270 3 2.38829 12.7534 7.29972
256 3 1.03055 15.0259 7.32086
274 3 3.79119 15.0735 7.35713
294 3 3.837 13.4764 9.51433
322 3 1.00759 13.5105 9.27111
38 1 3.36972 14.4052 11.8532
92 2 3.74345 13.4168 11.7674
134 3 2.37656 15.981 0.943898
162 3 2.4533 17.538 2.97417
97 3 1.08799 18.2501 0.829363
138 3 3.80474 18.1944 1.02043
230 3 2.43927 15.8265 5.10243
193 3 1.1068 18.1807 5.15451
234 3 3.69203 18.1566 5.18683
258 3 2.40595 17.359 7.37608
326 3 2.42389 15.7976 9.36521
290 3 1.02465 18.0902 9.4257
330 3 3.79419 18.1645 9.42869
36 1 2.74373 16.6141 11.9907
94 2 3.78193 18.1738 11.9654
67 2 2.41496 15.689 11.8925
34 1 1.38736 15.8762 12.192
114 3 7.67764 1.79731 0.955656
186 3 6.42356 1.08598 3.09257
141 3 5.15466 1.85425 1.00277
210 3 7.76508 1.87186 5.27757
237 3 5.07558 1.94937 5.28365
282 3 6.43173 1.00672 7.45354
333 3 5.06947 1.87234 9.40202
306 3 7.79825 1.84684 9.50599
44 1 6.79204 0.890279 13.0572
47 1 7.20064 0.0229028 11.7118
50 1 4.54775 2.71208 14.6302
90 2 4.77953 2.17273 13.9764
22 1 6.37255 3.00329 13.0645
121 3 6.43475 4.15012 0.868081
189 3 7.79949 3.4385 3.02944
165 3 5.12836 3.3493 3.12647
149 3 6.3815 5.79823 3.01938
217 3 6.47986 4.21812 5.18738
261 3 5.1066 3.45735 7.30987
245 3 6.4685 5.72335 7.28461
286 3 7.73522 3.38874 7.43058
313 3 6.42479 4.20039 9.44656
9 1 7.14975 3.26361 11.9978
95 2 7.31151 3.33392 12.8739
54 1 7.4247 5.64241 13.3792
125 3 7.80264 6.49226 0.868186
153 3 7.78139 8.06253 2.97557
181 3 5.10995 8.10374 3.0845
105 3 5.22031 6.55231 0.798592
109 3 6.4646 8.8539 0.891934
221 3 7.78423 6.45069 5.21855
201 3 5.10045 6.47193 5.14291
205 3 6.50148 8.8425 5.25134
249 3 7.86947 8.11165 7.34209
277 3 5.19546 8.06605 7.48091
297 3 5.13539 6.47319 9.45779
301 3 6.47904 8.80648 9.55831
317 3 7.83518 6.43031 9.37821
48 1 6.49523 8.066 12.3847
96 2 7.60469 6.5258 12.9132
81 2 6.3125 8.80833 11.7654
26 1 5.44651 9.29306 11.9721
185 3 6.39498 10.3552 3.0132
142 3 5.11332 11.1709 1.09189
113 3 7.7834 11.2412 1.01666
209 3 7.79169 11.1896 5.27791
238 3 5.16569 11.2017 5.2667
281 3 6.44831 10.3964 7.40684
334 3 5.22268 11.1028 9.51491
305 3 7.86797 11.113 9.52698
33 1 7.34282 10.2856 12.1829
74 2 7.90943 11.0692 11.968
122 3 6.46441 13.5191 0.989233
190 3 7.75871 12.6845 3.12228
166 3 5.09406 12.8754 3.11154
150 3 6.43838 15.0713 3.07791
218 3 6.53497 13.597 5.30952
262 3 5.10767 12.7753 7.42821
285 3 7.83892 12.6836 7.45063
246 3 6.40339 15.0551 7.41192
314 3 6.43971 13.4773 9.46894
49 1 7.13502 13.9794 11.9657
93 2 6.4405 13.3929 12.0004
25 1 4.79447 13.3821 11.9342
12 1 6.87981 12.5084 12.034
126 3 7.79125 15.8206 0.944235
154 3 7.8029 17.3814 2.99586
182 3 5.15697 17.4418 3.05307
106 3 5.06222 15.8594 0.91625
110 3 6.37761 18.2023 0.954388
222 3 7.85587 15.8484 5.20133
202 3 5.13771 15.833 5.21777
206 3 6.44362 18.1735 5.23286
250 3 7.80206 17.3414 7.33221
278 3 5.13172 17.366 7.33768
318 3 7.80086 15.7838 9.5668
298 3 5.10762 15.891 9.39228
302 3 6.53446 18.2184 9.50688
65 2 7.84029 15.6512 12.2173
14 1 7.27338 16.3035 12.5021
68 2 6.73803 18.5419 12.6787
59 1 4.70126 18.3891 12.2628
135 3 10.4861 1.72867 1.0044
179 3 11.9309 0.968742 2.98378
159 3 9.18013 1.07791 3.02755
231 3 10.5534 1.81683 5.13215
275 3 11.7539 1.02314 7.26972
254 3 9.06366 1.06741 7.36292
327 3 10.4413 1.74155 9.42473
13 1 10.3084 2.54692 12.0473
19 1 9.50117 0.994328 12.047
89 2 10.3506 1.61654 11.7266
139 3 11.8769 4.20944 0.889639
163 3 10.4895 3.30159 2.98914
100 3 9.01712 4.20787 1.00357
172 3 9.11172 5.72596 3.03677
148 3 11.8359 5.7471 2.996
235 3 11.8143 4.15719 5.1998
196 3 9.20288 4.15691 5.24104
244 3 11.8969 5.66529 7.3935
265 3 9.13554 5.74143 7.36797
259 3 10.5428 3.41767 7.39181
291 3 9.06038 4.16595 9.47249
331 3 11.7781 4.11736 9.41102
43 1 9.26439 3.91368 13.0726
75 2 10.1763 4.18128 12.734
32 1 10.011 4.56291 11.8318
2 1 11.9934 4.0421 13.2406
120 3 10.4131 6.50745 0.95693
176 3 10.4524 8.0342 3.05682
104 3 11.8957 8.84371 1.00903
132 3 9.22309 8.87887 0.940126
216 3 10.525 6.52436 5.19797
228 3 9.11316 8.86409 5.18348
200 3 11.9369 8.87623 5.08798
272 3 10.5355 8.07509 7.27793
312 3 10.4745 6.47009 9.37772
296 3 11.9033 8.81411 9.45657
324 3 9.24568 8.81071 9.38162
52 1 9.93238 7.60282 13.1017
70 2 10.4478 7.61475 12.3676
23 1 10.0156 7.92415 11.4047
41 1 11.9629 6.74034 11.8406
40 1 8.28189 6.41183 12.2299
136 3 10.4331 11.2154 1.02691
180 3 11.9069 10.45 3.03854
160 3 9.18831 10.3323 3.07451
232 3 10.5548 11.1582 5.21988
276 3 11.9171 10.4259 7.34865
253 3 9.23631 10.4146 7.38181
328 3 10.5025 11.0922 9.47712
45 1 11.603 10.6032 12.9339
28 1 8.75499 11.0122 12.4232
84 2 10.754 11.2438 12.7445
15 1 10.5483 11.3578 11.7521
140 3 11.864 13.6285 1.02733
164 3 10.5428 12.6322 3.10623
99 3 9.19229 13.4959 1.00132
147 3 11.877 15.0419 3.08539
171 3 9.19044 14.9963 3.17406
195 3 9.27179 13.4897 5.25042
236 3 11.9201 13.5739 5.15608
260 3 10.5107 12.68 7.46376
266 3 9.206 15.084 7.46211
243 3 11.8085 15.0844 7.38541
292 3 9.1744 13.531 9.49747
332 3 11.8285 13.5297 9.42218
76 2 11.9106 13.5982 11.9269
18 1 11.5736 14.5594 12.1216
53 1 11.4334 12.7589 12.4159
119 3 10.5286 15.7704 1.04
175 3 10.5237 17.3696 3.02402
131 3 8.97705 18.1973 1.04697
103 3 11.8824 18.149 0.891143
215 3 10.4915 15.9337 5.22726
227 3 9.10902 18.2019 5.25276
199 3 11.8741 18.1886 5.1778
271 3 10.4546 17.392 7.34402
311 3 10.4457 15.8894 9.50416
323 3 9.12343 18.1016 9.47691
295 3 11.8213 18.2034 9.44936
7 1 11.1058 16.7086 12.0196
87 2 11.2236 16.0766 12.795
4 1 11.8911 16.37 13.4094
62 1 8.965 15.7984 12.0859
151 3 14.4961 1.17723 3.06733
107 3 13.1274 1.78233 0.973689
127 3 15.8982 1.8572 0.971096
223 3 15.8707 1.84952 5.22507
203 3 13.1677 1.90065 5.18294
247 3 14.5465 0.999648 7.26801
299 3 13.3106 1.71521 9.44582
319 3 15.8335 1.83306 9.44321
78 2 15.3101 1.16574 12.6807
24 1 14.828 1.44847 11.9332
30 1 15.8223 0.374105 12.1933
63 1 16.0362 3.05036 12.9866
111 3 14.4152 4.18938 0.883894
155 3 15.8464 3.42409 3.0408
183 3 13.2324 3.51078 3.00837
187 3 14.5784 5.77319 2.98615
207 3 14.5479 4.22983 5.23283
283 3 14.5088 5.66164 7.31685
279 3 13.2707 3.35427 7.37943
251 3 15.9029 3.40677 7.39638
303 3 14.4642 4.08455 9.50941
91 2 13.0319 4.21577 13.0144
46 1 13.1232 5.87705 12.5022
55 1 13.2317 3.4864 12.2516
115 3 15.8618 6.53624 0.95391
192 3 15.8884 8.10041 2.98982
168 3 13.2275 8.00836 3.00182
144 3 13.1651 6.54465 0.918741
124 3 14.5182 8.91609 0.994698
211 3 15.9615 6.55109 5.17174
240 3 13.1738 6.41492 5.1851
220 3 14.5092 8.72492 5.18259
287 3 15.919 8.13321 7.25631
264 3 13.2059 8.01138 7.28864
307 3 15.8175 6.47919 9.38393
316 3 14.5203 8.80088 9.39518
336 3 13.2573 6.47607 9.53042
77 2 12.9673 6.63624 11.8395
29 1 15.8783 8.28504 12.6073
10 1 14.0524 8.17027 12.4791
86 2 14.9632 8.60551 12.6741
128 3 15.9052 11.2447 0.894044
152 3 14.5374 10.4357 3.02876
108 3 13.2376 11.2213 0.959262
224 3 15.9477 11.2539 5.11877
204 3 13.2548 11.2446 5.26024
248 3 14.568 10.425 7.33302
320 3 15.8515 11.1649 9.46076
300 3 13.2065 11.257 9.34289
5 1 13.0561 9.64913 10.3319
79 2 15.882 10.697 11.6244
57 1 15.5291 9.92234 12.0254
112 3 14.6387 13.5477 0.987755
156 3 15.8783 12.7505 3.01691
184 3 13.2615 12.7453 3.10093
188 3 14.5557 15.075 2.92361
208 3 14.5647 13.5221 5.21821
280 3 13.1602 12.764 7.31593
284 3 14.4785 15.1384 7.29189
252 3 15.8404 12.7841 7.33467
304 3 14.5229 13.4682 9.39098
6 1 13.5551 13.186 12.013
88 2 14.587 13.4506 11.8407
37 1 15.3992 15.1471 12.2096
39 1 14.8165 12.4587 11.7537
116 3 15.9787 15.8954 0.942756
191 3 15.8476 17.4143 3.05926
167 3 13.1894 17.3907 2.91007
143 3 13.1617 15.8524 0.939285
123 3 14.673 18.2327 0.849295
212 3 15.8966 15.8644 5.12742
239 3 13.2231 15.875 5.11493
219 3 14.5502 18.1698 5.16856
288 3 15.8887 17.402 7.30666
263 3 13.114 17.4005 7.40641
308 3 15.9145 15.7856 9.4397
335 3 13.1028 15.8972 9.45174
315 3 14.4713 18.1821 9.40689
64 1 15.5609 16.6184 12.0372
82 2 13.9221 17.4737 12.9432
72 2 15.9676 15.7842 11.8948
61 1 13.1954 17.4591 12.2315
51 1 13.8191 18.3516 13.3878
