ITEM: TIMESTEP
120000000
ITEM: NUMBER OF ATOMS
336
ITEM: BOX BOUNDS pp pp pp
0.0000000000000000e+00 1.6167135238600000e+01
0.0000000000000000e+00 1.8668199539200000e+01
0.0000000000000000e+00 2.5747400283800001e+01
ITEM: ATOMS id type x y z
117 3 2.49722 1.90737 1.04817
145 3 3.71974 1.17114 3.17772
169 3 1.07183 1.10006 3.00239
213 3 2.42722 1.81462 5.18029
241 3 3.75161 1.04341 7.37914
267 3 0.991462 1.05324 7.36615
309 3 2.3423 1.83976 9.43192
8 1 1.8431 2.93466 12.8453
66 2 2.61318 2.35012 12.6158
3 1 3.14963 0.191026 12.1758
35 1 2.79193 2.46469 11.5354
101 3 3.64767 4.20346 0.968832
173 3 2.35984 3.44141 3.09326
129 3 1.08076 4.15869 0.923776
177 3 3.77239 5.71036 3.06291
157 3 0.969209 5.73763 3.09855
197 3 3.73505 4.22787 5.25476
225 3 0.953067 4.18662 5.26498
255 3 1.07628 5.78197 7.33336
273 3 3.76757 5.71277 7.30933
269 3 2.41206 3.4011 7.36055
321 3 0.98803 4.22848 9.53939
293 3 3.65489 4.10482 9.48482
56 1 0.658418 5.60428 12.7487
20 1 3.79906 5.91272 11.6895
71 2 0.26255 3.90701 12.5989
1 1 3.08054 3.81095 16.5751
69 2 3.83212 4.23416 16.0736
133 3 2.35978 6.56616 0.969309
161 3 2.47886 7.99664 3.0119
137 3 3.75115 8.88988 1.00869
98 3 1.11765 8.89575 0.953592
229 3 2.43037 6.55251 5.19395
194 3 1.10219 8.91945 5.22991
233 3 3.87532 8.80542 5.30196
257 3 2.41689 8.03707 7.35592
325 3 2.48915 6.47481 9.34569
289 3 1.02303 8.71167 9.31887
329 3 3.73709 8.73508 9.5204
80 2 0.978585 6.4606 12.6682
27 1 3.58009 8.31161 12.1773
11 1 0.783854 6.70714 11.6519
83 2 3.81397 9.15696 11.673
73 2 3.67364 6.3845 12.6672
42 1 2.69206 6.44994 12.817
118 3 2.48264 11.2142 1.03971
146 3 3.74926 10.4188 3.08413
170 3 1.00141 10.4414 2.98328
214 3 2.42233 11.2797 5.11573
268 3 1.02951 10.3995 7.27495
242 3 3.82193 10.3532 7.42175
310 3 2.3567 11.1513 9.32512
85 2 2.36576 10.9911 11.5538
16 1 0.781319 10.6202 11.8749
31 1 3.17265 10.1387 11.6514
17 1 2.83502 11.8706 11.7276
174 3 2.37924 12.7956 3.05794
130 3 1.15564 13.5581 0.99968
178 3 3.76182 15.1367 3.01042
158 3 1.06437 15.1517 2.89883
102 3 3.8126 13.5784 0.926412
198 3 3.80413 13.4802 5.29202
226 3 1.08597 13.5551 5.15871
270 3 2.37607 12.7567 7.30657
256 3 1.04222 15.0089 7.31132
274 3 3.76558 15.0607 7.36603
294 3 3.83961 13.4731 9.50009
322 3 1.02072 13.4986 9.25956
38 1 3.7006 14.3666 12.0213
92 2 3.79655 13.4029 11.8061
34 1 1.45394 15.5036 12.1819
134 3 2.353 15.9801 0.97868
162 3 2.4381 17.5311 3.02273
97 3 1.11344 18.2154 0.839992
138 3 3.81239 18.204 1.0142
193 3 1.11869 18.2105 5.1384
230 3 2.39442 15.8266 5.10735
234 3 3.6862 18.1908 5.19038
258 3 2.38922 17.3686 7.38988
326 3 2.45152 15.7851 9.37504
330 3 3.80035 18.1764 9.38573
290 3 1.02617 18.0773 9.43537
36 1 2.76822 16.7461 11.9288
94 2 3.71164 18.1592 11.9819
67 2 2.47549 15.7576 11.8011
114 3 7.66583 1.82819 0.945858
186 3 6.43428 1.08945 3.07453
141 3 5.21568 1.87672 0.975801
210 3 7.76606 1.87458 5.30989
237 3 5.07891 1.93552 5.28249
282 3 6.42016 1.01915 7.44852
333 3 5.08121 1.88088 9.35877
306 3 7.78138 1.83959 9.46817
44 1 6.57672 0.899936 12.9077
22 1 6.49936 2.86188 13.1679
90 2 4.83248 2.25741 13.9499
50 1 4.61916 2.88785 14.672
60 1 4.08238 2.3826 13.2369
121 3 6.48567 4.15907 0.873772
189 3 7.75846 3.44323 3.00748
165 3 5.12124 3.36265 3.12579
149 3 6.36751 5.78025 3.01727
217 3 6.46552 4.21817 5.18507
245 3 6.47842 5.71625 7.31789
261 3 5.14104 3.47658 7.34747
286 3 7.75162 3.39366 7.44132
313 3 6.3899 4.19257 9.40585
95 2 7.28917 3.35125 12.8493
54 1 7.47626 5.55217 13.1928
9 1 7.05699 3.13058 11.7129
58 1 4.17438 5.2154 16.2976
153 3 7.78936 8.08159 2.99586
181 3 5.08636 8.0853 3.07786
105 3 5.23268 6.56342 0.791634
109 3 6.44978 8.84592 0.89568
125 3 7.75616 6.48006 0.861314
221 3 7.81398 6.43796 5.21712
201 3 5.09615 6.48341 5.17454
205 3 6.47557 8.87185 5.25383
277 3 5.1855 8.1133 7.47138
249 3 7.8815 8.10354 7.38741
297 3 5.13605 6.45972 9.43584
317 3 7.83687 6.43523 9.34968
301 3 6.47089 8.81971 9.52874
96 2 7.72325 6.5199 12.8786
48 1 6.54711 7.95539 12.436
81 2 6.39971 8.699 11.8507
26 1 5.42706 9.13735 12.0847
185 3 6.42932 10.3278 3.01959
142 3 5.09514 11.2138 1.12213
113 3 7.78198 11.2293 1.08098
209 3 7.8013 11.2077 5.26876
238 3 5.18474 11.1805 5.24435
281 3 6.43926 10.4026 7.40378
334 3 5.22799 11.0834 9.51056
305 3 7.82411 11.1342 9.54373
33 1 7.39672 10.2094 12.2037
74 2 7.89092 11.045 11.9197
122 3 6.50454 13.5235 1.00089
190 3 7.8002 12.6444 3.08247
166 3 5.05427 12.8872 3.11185
150 3 6.45636 15.0586 3.09231
218 3 6.54406 13.6344 5.28652
285 3 7.84033 12.7146 7.43886
262 3 5.11539 12.7634 7.42138
246 3 6.40523 15.0793 7.41572
314 3 6.44182 13.5099 9.46474
25 1 4.80948 13.5174 11.8531
49 1 7.03414 14.1379 12.1681
93 2 6.4392 13.3928 11.9731
12 1 6.76084 12.6038 12.1987
126 3 7.76653 15.8348 0.953758
154 3 7.8302 17.3816 3.02109
182 3 5.14296 17.4576 3.08435
106 3 5.02339 15.8651 0.951494
110 3 6.3674 18.1759 0.973518
222 3 7.84802 15.8645 5.18719
202 3 5.1159 15.8242 5.24577
206 3 6.44843 18.1779 5.22735
250 3 7.82314 17.3381 7.31589
278 3 5.10636 17.3829 7.35755
318 3 7.79877 15.817 9.55034
298 3 5.08398 15.8825 9.36164
302 3 6.53476 18.2187 9.52346
65 2 7.86968 15.6642 12.2005
14 1 7.36905 16.7344 12.45
59 1 4.60605 18.5466 12.0956
68 2 6.75884 18.6395 12.6647
47 1 7.31641 18.6569 11.7068
135 3 10.4849 1.77013 1.00825
179 3 11.8734 0.973652 2.98634
159 3 9.1772 1.08185 3.04914
231 3 10.5464 1.81188 5.1146
275 3 11.7515 1.02074 7.27431
254 3 9.06286 1.05371 7.34628
327 3 10.4143 1.77559 9.42127
13 1 10.5044 2.51014 12.3026
19 1 9.49977 1.14048 12.1609
89 2 10.3918 1.57541 11.7323
139 3 11.8668 4.22624 0.859535
163 3 10.4963 3.30913 2.98499
100 3 9.01315 4.19449 1.01248
172 3 9.09813 5.73936 3.01412
148 3 11.8211 5.74786 3.00692
235 3 11.8156 4.14534 5.16821
196 3 9.18602 4.16735 5.20326
244 3 11.8975 5.67087 7.3687
265 3 9.11058 5.73476 7.37202
259 3 10.5469 3.40614 7.38626
291 3 9.06012 4.17882 9.46299
331 3 11.765 4.11662 9.42476
43 1 9.36238 4.01886 13.1542
75 2 10.1546 4.17168 12.6986
32 1 9.89449 4.38413 11.7234
120 3 10.4427 6.51841 0.959074
176 3 10.4538 8.03792 3.03887
132 3 9.254 8.86464 0.91164
104 3 11.8743 8.85353 1.01183
216 3 10.4937 6.51377 5.1772
228 3 9.09783 8.86367 5.1621
200 3 11.9397 8.84741 5.08437
272 3 10.5299 8.08899 7.30424
312 3 10.4773 6.46535 9.43027
296 3 11.9118 8.80737 9.44731
324 3 9.25218 8.8088 9.40712
52 1 9.94211 7.27035 13.0954
70 2 10.4172 7.58957 12.2784
23 1 9.92805 7.93517 11.4339
41 1 12.031 6.89696 11.7319
40 1 8.19234 6.36309 12.0314
136 3 10.4206 11.2393 1.03607
180 3 11.9227 10.423 3.04667
160 3 9.19602 10.3568 3.07664
232 3 10.5309 11.1512 5.20825
276 3 11.9043 10.4114 7.31827
253 3 9.20904 10.4137 7.34581
328 3 10.4813 11.0652 9.50676
28 1 8.75509 11.2003 12.288
45 1 11.451 10.5319 13.1826
84 2 10.7488 11.1154 12.7187
15 1 10.8799 11.1249 11.7676
140 3 11.8452 13.5996 1.04088
164 3 10.5312 12.6382 3.09573
99 3 9.23483 13.4857 1.01804
147 3 11.8707 15.0583 3.07018
171 3 9.1646 14.9933 3.13461
236 3 11.8837 13.5686 5.15534
195 3 9.27344 13.4874 5.25488
266 3 9.18815 15.0503 7.46377
260 3 10.5125 12.667 7.43979
243 3 11.7905 15.1075 7.4092
292 3 9.15249 13.5339 9.46686
332 3 11.8237 13.5353 9.45526
18 1 11.5217 14.5028 12.0146
76 2 11.936 13.6417 11.8921
53 1 11.5026 12.7433 12.2904
119 3 10.5391 15.7697 1.03852
175 3 10.5583 17.3753 3.05781
131 3 8.9704 18.2158 1.05287
103 3 11.8916 18.1267 0.898559
215 3 10.5018 15.9235 5.24067
199 3 11.8578 18.1758 5.15005
227 3 9.10234 18.1951 5.24708
271 3 10.5147 17.3854 7.32974
311 3 10.4514 15.8778 9.49135
323 3 9.12284 18.0926 9.46752
295 3 11.8271 18.1849 9.41334
87 2 11.2475 16.0993 12.8045
7 1 10.9247 16.6298 11.9823
4 1 11.8282 16.4825 13.5637
62 1 8.69997 15.9605 12.2639
151 3 14.5288 1.17253 3.08687
107 3 13.1614 1.76003 0.935627
127 3 15.9156 1.81535 0.95954
223 3 15.8798 1.82378 5.22779
203 3 13.1466 1.91752 5.18419
247 3 14.5486 1.00494 7.28889
319 3 15.8797 1.80672 9.46359
299 3 13.309 1.72411 9.46815
78 2 15.3783 1.1171 12.6087
24 1 14.6906 1.3732 11.7694
30 1 15.9541 0.406469 12.2583
63 1 15.9693 3.0731 12.9619
111 3 14.4309 4.21131 0.919479
155 3 15.87 3.43366 3.02158
183 3 13.2424 3.50154 3.03097
187 3 14.5829 5.78408 3.01238
207 3 14.5633 4.241 5.25541
283 3 14.4983 5.64474 7.30884
279 3 13.2823 3.32592 7.39615
251 3 15.9111 3.38834 7.39213
303 3 14.4812 4.11745 9.51502
46 1 13.1039 5.97617 12.4339
91 2 13.0056 4.21425 12.9627
55 1 13.4411 3.90308 11.991
2 1 12.2174 3.70015 12.927
21 1 16.113 4.09077 11.6117
115 3 15.8487 6.52608 0.983808
192 3 15.87 8.0809 2.99811
168 3 13.227 7.98495 3.03186
144 3 13.1747 6.53807 0.918125
124 3 14.5328 8.92064 0.976365
211 3 15.9428 6.5657 5.16133
240 3 13.1392 6.4397 5.17882
220 3 14.5113 8.74568 5.18851
287 3 15.9294 8.11494 7.24594
264 3 13.1781 8.00693 7.28962
307 3 15.8231 6.44869 9.36727
336 3 13.218 6.51683 9.5202
316 3 14.5414 8.79936 9.37461
29 1 15.594 7.96 12.7115
77 2 12.9781 6.70665 11.7902
10 1 14.1199 8.04328 12.5323
86 2 14.9556 8.58137 12.7386
128 3 15.9329 11.2796 0.890764
152 3 14.512 10.3948 3.00517
108 3 13.272 11.2358 0.961505
224 3 15.9204 11.2234 5.08932
204 3 13.2619 11.2769 5.25588
248 3 14.5828 10.4326 7.35982
300 3 13.1847 11.2291 9.37896
320 3 15.8665 11.1507 9.43113
5 1 12.8625 9.54963 10.93
79 2 15.8561 10.7113 11.6072
57 1 15.4942 9.95148 11.899
39 1 15.0658 12.4189 11.761
112 3 14.6163 13.5412 0.954883
156 3 15.8819 12.7541 3.04336
184 3 13.2513 12.7675 3.10436
188 3 14.5641 15.0617 2.92144
208 3 14.5811 13.5047 5.23578
280 3 13.1743 12.7614 7.32936
284 3 14.4879 15.0923 7.28921
252 3 15.8121 12.7397 7.30157
304 3 14.5261 13.4881 9.4
88 2 14.574 13.3479 11.8203
6 1 13.7581 13.2218 12.1282
37 1 15.4725 15.0981 12.0285
116 3 15.9624 15.8746 0.957764
191 3 15.8496 17.4343 3.04653
167 3 13.206 17.4028 2.92131
143 3 13.1783 15.8397 0.936027
123 3 14.6441 18.2039 0.820259
239 3 13.2149 15.8945 5.11867
212 3 15.8803 15.886 5.15136
219 3 14.5796 18.1825 5.17545
288 3 15.8773 17.3707 7.29501
263 3 13.1598 17.4034 7.39761
335 3 13.112 15.8985 9.44129
308 3 15.9344 15.8154 9.42041
315 3 14.455 18.1566 9.3903
61 1 13.4763 17.4815 12.019
82 2 13.8523 17.462 12.9862
64 1 15.2841 16.394 12.1554
72 2 15.9763 15.8024 11.8785
51 1 13.8355 18.3979 13.2996
