ITEM: TIMESTEP
120000000
ITEM: NUMBER OF ATOMS
336
ITEM: BOX BOUNDS pp pp pp
0.0000000000000000e+00 1.6167135238600000e+01
0.0000000000000000e+00 1.8668199539200000e+01
0.0000000000000000e+00 2.5747400283800001e+01
ITEM: ATOMS id type x y z
117 3 2.52101 1.93533 1.04283
145 3 3.71881 1.18086 3.14397
169 3 1.08904 1.12416 2.99131
213 3 2.42403 1.79211 5.22528
267 3 0.994468 1.05457 7.35154
241 3 3.78985 1.05483 7.37329
309 3 2.33693 1.85616 9.43005
3 1 3.05154 0.229718 12.4339
66 2 2.61484 2.36523 12.6098
35 1 2.91143 2.53545 11.6053
8 1 1.71156 2.95455 12.5001
101 3 3.65885 4.20268 0.966541
173 3 2.35811 3.46389 3.16387
129 3 1.09816 4.17595 0.939161
157 3 0.999172 5.73922 3.10526
177 3 3.79523 5.72698 3.08241
197 3 3.72926 4.25544 5.26331
225 3 0.933521 4.21564 5.2323
255 3 1.08003 5.76203 7.31348
273 3 3.80138 5.69801 7.33146
269 3 2.4118 3.37134 7.37466
321 3 1.00687 4.2195 9.53241
293 3 3.68352 4.09646 9.5112
56 1 0.683429 5.42679 12.8533
71 2 0.280256 3.93475 12.6062
20 1 3.61563 5.60666 11.9864
21 1 0.171741 3.95843 11.6795
1 1 3.16233 4.09689 16.8626
69 2 3.80946 4.27509 16.112
133 3 2.39602 6.515 0.994019
161 3 2.50521 7.99718 2.98525
137 3 3.72572 8.92074 0.995673
98 3 1.09825 8.8765 0.935572
229 3 2.4242 6.51678 5.19802
194 3 1.12271 8.91877 5.24523
233 3 3.87164 8.78141 5.24369
257 3 2.42825 8.04482 7.33687
325 3 2.47101 6.46297 9.35987
289 3 0.996905 8.7134 9.33648
329 3 3.72987 8.74014 9.54231
83 2 3.8203 9.15069 11.6291
27 1 3.34483 8.2444 11.9944
11 1 0.914123 6.67963 11.6214
80 2 0.929301 6.46439 12.6522
73 2 3.63053 6.36024 12.7082
42 1 2.74791 6.25184 12.8695
118 3 2.47901 11.2338 1.03749
146 3 3.74575 10.394 3.10896
170 3 1.02522 10.4268 3.02246
214 3 2.42276 11.2757 5.14233
268 3 1.0412 10.4282 7.24439
242 3 3.79403 10.3618 7.42706
310 3 2.35794 11.1489 9.32722
16 1 0.603988 10.819 11.9705
85 2 2.31215 11.0769 11.5883
31 1 3.02367 10.0003 11.6509
17 1 2.84485 11.8629 11.6169
174 3 2.37061 12.7968 3.05677
130 3 1.14639 13.597 1.00231
158 3 1.05083 15.1778 2.90816
178 3 3.75623 15.1294 2.99029
102 3 3.82538 13.5677 0.939788
198 3 3.78607 13.4903 5.31157
226 3 1.10637 13.5321 5.14548
270 3 2.37901 12.7352 7.29884
256 3 1.02334 15.0382 7.31623
274 3 3.78945 15.0585 7.36148
294 3 3.83267 13.4762 9.4957
322 3 1.01731 13.497 9.28505
38 1 3.42835 14.5273 12.0265
92 2 3.77647 13.4182 11.7843
134 3 2.3626 15.9907 0.958072
162 3 2.45546 17.5416 2.99623
97 3 1.09668 18.2432 0.836278
138 3 3.801 18.1954 1.03264
193 3 1.11189 18.1624 5.15609
230 3 2.42764 15.8301 5.10003
234 3 3.69089 18.1703 5.20529
258 3 2.40129 17.3824 7.38648
326 3 2.43188 15.7675 9.38629
290 3 1.02869 18.0838 9.42955
330 3 3.8173 18.1469 9.42783
36 1 2.88624 16.7181 12.1034
67 2 2.42606 15.7482 11.8538
34 1 1.4679 15.5741 12.0759
94 2 3.74711 18.1716 11.8982
114 3 7.65888 1.80651 0.944381
186 3 6.42026 1.07751 3.08181
141 3 5.15533 1.86845 0.987272
210 3 7.77498 1.87713 5.28374
237 3 5.06949 1.94121 5.29691
282 3 6.44835 1.00247 7.44029
333 3 5.06447 1.86773 9.37468
306 3 7.78655 1.84454 9.51145
50 1 4.666 2.95776 14.5423
44 1 6.78068 0.951343 12.8944
60 1 4.13312 2.4959 13.2947
90 2 4.79122 2.24913 13.9786
22 1 6.55625 3.01479 13.1718
121 3 6.4547 4.17526 0.855177
189 3 7.79755 3.45531 3.04135
165 3 5.11115 3.35265 3.11218
149 3 6.34037 5.78357 3.02126
217 3 6.47691 4.22125 5.16598
261 3 5.09424 3.45528 7.31405
245 3 6.45077 5.71687 7.30828
286 3 7.74576 3.37922 7.4182
313 3 6.42862 4.20981 9.46612
54 1 7.65217 5.55829 13.3623
95 2 7.34617 3.35248 12.857
9 1 7.1602 3.20485 11.8036
58 1 4.0719 5.27234 16.2922
125 3 7.79764 6.48875 0.863568
153 3 7.77506 8.06313 2.95585
181 3 5.10048 8.08134 3.07689
105 3 5.23137 6.56904 0.791379
109 3 6.46218 8.8632 0.876418
201 3 5.09177 6.4545 5.14344
221 3 7.78238 6.46192 5.22018
205 3 6.50805 8.84347 5.25726
249 3 7.86263 8.10867 7.35165
277 3 5.19554 8.08286 7.45684
297 3 5.12633 6.45036 9.47263
317 3 7.83755 6.44144 9.34052
301 3 6.46882 8.80292 9.55707
48 1 6.48249 7.97115 12.478
96 2 7.6381 6.51489 12.9626
81 2 6.31739 8.79271 11.8449
26 1 5.42264 9.27841 11.9571
185 3 6.37976 10.357 3.02862
142 3 5.12899 11.1716 1.08831
113 3 7.79537 11.2412 1.03334
209 3 7.79197 11.187 5.26904
238 3 5.19462 11.2128 5.27359
281 3 6.46315 10.3971 7.39898
334 3 5.21822 11.0816 9.49945
305 3 7.87714 11.1041 9.49984
33 1 7.20669 10.1857 12.1512
74 2 7.8775 11.0329 11.9842
122 3 6.45882 13.5438 0.991044
190 3 7.76381 12.6544 3.11551
166 3 5.09641 12.8577 3.10846
150 3 6.43457 15.0755 3.06126
218 3 6.53751 13.5991 5.31872
262 3 5.10091 12.768 7.40913
285 3 7.84247 12.7011 7.45237
246 3 6.43813 15.0717 7.42221
314 3 6.42338 13.4941 9.45925
25 1 4.68516 13.4348 12.0339
93 2 6.42711 13.4288 11.9252
49 1 7.16027 14.1546 12.0028
12 1 7.02031 12.6001 12.0678
126 3 7.78829 15.8175 0.956217
154 3 7.79777 17.3974 2.9856
182 3 5.1688 17.4581 3.05499
106 3 5.04857 15.869 0.920537
110 3 6.37275 18.1953 0.957567
222 3 7.855 15.847 5.17465
202 3 5.13539 15.846 5.22577
206 3 6.44088 18.1665 5.20279
250 3 7.81132 17.3484 7.33231
278 3 5.11593 17.3605 7.33963
318 3 7.79469 15.8006 9.57309
298 3 5.10519 15.895 9.38733
302 3 6.52685 18.2324 9.51049
65 2 7.88454 15.6399 12.2029
14 1 7.41433 16.3708 12.4892
59 1 4.63084 18.4408 12.2104
68 2 6.68363 18.5795 12.6464
47 1 7.17047 18.6087 11.8556
135 3 10.4991 1.74006 1.0128
179 3 11.9179 0.969186 2.98176
159 3 9.16769 1.09514 3.03898
231 3 10.5607 1.80486 5.12124
275 3 11.7656 1.03335 7.26349
254 3 9.05535 1.06219 7.33893
327 3 10.4297 1.75882 9.41512
19 1 9.58466 1.17187 11.9253
13 1 10.2881 2.67164 11.9768
89 2 10.3595 1.64976 11.7565
139 3 11.8796 4.20838 0.890971
163 3 10.4843 3.29886 2.96906
100 3 9.0139 4.20898 1.02782
172 3 9.1137 5.73612 3.03811
148 3 11.8339 5.74924 2.9926
235 3 11.8336 4.15835 5.20193
196 3 9.1804 4.14119 5.21607
244 3 11.9166 5.66464 7.38015
265 3 9.12475 5.72217 7.37273
259 3 10.5512 3.40615 7.37374
331 3 11.7896 4.12268 9.42357
291 3 9.04674 4.16733 9.45116
43 1 9.25929 4.04149 12.9792
75 2 10.1733 4.19119 12.7232
32 1 10.0278 4.63406 11.7963
2 1 12.1072 3.94764 13.3489
120 3 10.4261 6.51368 0.951091
176 3 10.4626 8.06933 3.04814
132 3 9.25074 8.8617 0.933152
104 3 11.8788 8.84921 1.0066
216 3 10.5126 6.51934 5.19646
200 3 11.9532 8.86885 5.09763
228 3 9.11586 8.85571 5.1589
272 3 10.5427 8.09073 7.28716
312 3 10.4879 6.48007 9.38731
324 3 9.24131 8.81317 9.38621
296 3 11.9064 8.80396 9.4422
52 1 9.90032 7.71824 13.0884
70 2 10.4174 7.60699 12.337
23 1 9.87647 7.7309 11.4893
41 1 11.8947 6.86229 11.9397
40 1 8.19191 6.4471 12.1075
136 3 10.456 11.2074 1.03325
180 3 11.9041 10.4401 3.03937
160 3 9.17795 10.3382 3.07572
232 3 10.5454 11.1519 5.21925
276 3 11.9167 10.4257 7.34533
253 3 9.22439 10.4081 7.38031
328 3 10.5042 11.0928 9.47767
45 1 11.5397 10.6344 12.9524
28 1 8.77669 10.9363 12.3357
84 2 10.7417 11.2466 12.7146
15 1 10.7881 11.1185 11.6503
140 3 11.8632 13.6184 1.03239
164 3 10.5247 12.6453 3.10871
99 3 9.20081 13.4803 0.995766
171 3 9.18588 14.9995 3.17622
147 3 11.877 15.0533 3.08093
236 3 11.9195 13.5678 5.15686
195 3 9.27315 13.4958 5.25374
260 3 10.5111 12.6826 7.45203
266 3 9.19729 15.065 7.42871
243 3 11.7957 15.0738 7.37942
332 3 11.8497 13.5348 9.43073
292 3 9.1686 13.5382 9.49867
76 2 11.8824 13.6262 11.8952
18 1 11.6522 14.4005 12.2217
53 1 11.4442 12.9217 12.3642
119 3 10.5268 15.7676 1.02173
175 3 10.5449 17.3398 3.03037
131 3 8.96844 18.2181 1.04178
103 3 11.8516 18.1596 0.890909
215 3 10.4889 15.9291 5.23164
227 3 9.11106 18.2018 5.2631
199 3 11.8746 18.1744 5.16617
271 3 10.4777 17.4 7.32824
311 3 10.4585 15.8837 9.48601
323 3 9.12911 18.097 9.47588
295 3 11.8103 18.2153 9.45694
7 1 11.1824 16.6763 11.9574
87 2 11.2366 16.116 12.8044
4 1 11.7798 16.6035 13.6817
62 1 8.9372 15.636 12.3253
151 3 14.4952 1.17889 3.0765
107 3 13.1284 1.77185 0.96606
127 3 15.9138 1.84761 0.970117
223 3 15.8759 1.84814 5.2406
203 3 13.161 1.90999 5.19337
247 3 14.5379 1.00273 7.27354
319 3 15.8458 1.83016 9.44911
299 3 13.3004 1.7028 9.46641
78 2 15.3481 1.12283 12.6964
24 1 14.8396 1.43423 11.8288
30 1 15.9765 0.429544 12.4494
111 3 14.4376 4.19216 0.885319
155 3 15.8608 3.41812 3.03068
183 3 13.2363 3.52959 3.01204
187 3 14.5839 5.78175 2.98828
207 3 14.5222 4.22932 5.23033
283 3 14.5018 5.66361 7.31126
279 3 13.2506 3.34851 7.39111
251 3 15.9053 3.41886 7.40978
303 3 14.459 4.07746 9.52132
91 2 13.0354 4.18213 12.9997
46 1 12.9484 5.90155 12.4664
55 1 13.2142 3.60171 12.2217
63 1 15.7585 3.22093 13.1419
115 3 15.8517 6.54678 0.963176
192 3 15.8657 8.08267 2.99565
168 3 13.2263 8.0058 3.01023
144 3 13.1502 6.53654 0.923598
124 3 14.497 8.90421 0.969401
211 3 15.9608 6.56259 5.18772
240 3 13.1519 6.4079 5.1855
220 3 14.507 8.75071 5.18156
287 3 15.9096 8.13386 7.2562
264 3 13.2328 8.02766 7.28626
336 3 13.258 6.45999 9.5191
307 3 15.8172 6.48214 9.37133
316 3 14.517 8.78337 9.39006
29 1 15.8493 8.14363 12.5791
77 2 12.9909 6.64329 11.8381
10 1 14.0576 8.24479 12.3361
86 2 14.9841 8.59258 12.6628
128 3 15.893 11.2357 0.88994
152 3 14.5261 10.4338 3.01067
108 3 13.2305 11.2157 0.953282
224 3 15.9476 11.2707 5.12428
204 3 13.2684 11.2643 5.27274
248 3 14.5837 10.4219 7.33621
300 3 13.1852 11.2534 9.35056
320 3 15.8701 11.163 9.46258
5 1 12.888 9.83636 10.4075
57 1 15.5069 9.92179 11.7862
79 2 15.8613 10.712 11.6125
112 3 14.6116 13.5504 0.972349
156 3 15.8649 12.7672 3.01353
184 3 13.255 12.7439 3.10026
188 3 14.5601 15.0645 2.94062
208 3 14.5925 13.5164 5.22327
280 3 13.1492 12.7742 7.29438
284 3 14.485 15.1199 7.2967
252 3 15.8371 12.7573 7.32976
304 3 14.5459 13.479 9.38524
6 1 13.5474 13.3414 12.0287
88 2 14.5409 13.4275 11.8587
37 1 15.5821 14.8738 12.222
39 1 14.8519 12.5523 11.897
116 3 15.9818 15.8823 0.950554
191 3 15.8428 17.4212 3.04362
167 3 13.1751 17.3903 2.92721
143 3 13.1762 15.8619 0.948146
123 3 14.6674 18.2153 0.827402
212 3 15.9001 15.8629 5.12444
239 3 13.232 15.8646 5.12148
219 3 14.5312 18.1826 5.14588
288 3 15.8619 17.3896 7.30928
263 3 13.1204 17.381 7.41296
308 3 15.9205 15.7687 9.44446
335 3 13.0977 15.9054 9.45516
315 3 14.4642 18.1648 9.40656
61 1 13.1906 17.6456 12.1516
82 2 13.9479 17.4456 12.9553
64 1 15.3936 16.4522 12.082
72 2 15.9587 15.7262 11.847
51 1 14.0865 18.3676 13.2079
