ITEM: TIMESTEP
120000000
ITEM: NUMBER OF ATOMS
336
ITEM: BOX BOUNDS pp pp pp
0.0000000000000000e+00 1.6167135238600000e+01
0.0000000000000000e+00 1.8668199539200000e+01
0.0000000000000000e+00 2.5747400283800001e+01
ITEM: ATOMS id type x y z
117 3 2.48473 1.91303 1.051
145 3 3.74174 1.1719 3.14338
169 3 1.09376 1.11879 2.98879
213 3 2.43179 1.8223 5.21713
241 3 3.75795 1.05272 7.33427
267 3 0.951978 1.07098 7.38871
309 3 2.33453 1.84266 9.43877
3 1 3.03222 0.256165 12.2672
66 2 2.62164 2.3513 12.6301
35 1 2.60894 2.71447 11.5215
8 1 1.85735 3.06184 12.6844
101 3 3.67142 4.19622 0.992836
173 3 2.35851 3.42719 3.09626
129 3 1.10699 4.17462 0.914571
177 3 3.78027 5.71762 3.05209
157 3 0.989697 5.74135 3.07774
197 3 3.74519 4.22925 5.25
225 3 0.953328 4.18833 5.24835
255 3 1.08361 5.78944 7.33071
273 3 3.7925 5.70036 7.34558
269 3 2.41242 3.39193 7.36656
321 3 1.00694 4.22902 9.53266
293 3 3.63151 4.0986 9.4922
56 1 0.609822 5.5883 12.7852
71 2 0.295737 3.94657 12.6667
20 1 3.67383 5.78684 11.6837
69 2 3.81027 4.24224 16.0662
1 1 3.21198 4.06103 16.7256
133 3 2.37139 6.5348 0.950668
161 3 2.48005 8.00379 2.9791
137 3 3.74162 8.90206 1.00429
98 3 1.11009 8.92343 0.950833
229 3 2.4354 6.54306 5.19965
194 3 1.11952 8.91753 5.24021
233 3 3.85866 8.79059 5.26957
257 3 2.42047 8.0334 7.3322
325 3 2.47783 6.44789 9.3651
289 3 1.00826 8.72219 9.32074
329 3 3.74135 8.74097 9.54291
73 2 3.68058 6.36997 12.6451
27 1 3.5688 8.37086 12.2595
42 1 2.67942 6.25938 12.8642
80 2 0.973918 6.45114 12.6713
83 2 3.88585 9.10092 11.672
11 1 0.913901 6.75847 11.6801
118 3 2.49002 11.204 1.03769
146 3 3.73926 10.4173 3.11246
170 3 1.00832 10.4535 2.99945
214 3 2.43136 11.2566 5.12569
268 3 1.02799 10.4095 7.27781
242 3 3.81099 10.3433 7.41902
310 3 2.35388 11.1514 9.33305
16 1 0.775774 10.9234 11.5734
85 2 2.31235 11.0712 11.538
31 1 3.0434 9.9223 11.6976
17 1 2.85309 11.9192 11.7052
174 3 2.40454 12.7834 3.07083
130 3 1.14771 13.5768 1.01708
158 3 1.05191 15.1757 2.89443
178 3 3.7545 15.149 2.99665
102 3 3.84072 13.5698 0.940576
226 3 1.08226 13.5647 5.13865
198 3 3.77556 13.4816 5.30707
270 3 2.37938 12.7625 7.27082
274 3 3.75677 15.0523 7.35341
256 3 1.03896 14.989 7.31444
322 3 1.01834 13.5304 9.30021
294 3 3.80676 13.4674 9.49441
38 1 3.55779 14.3846 12.1189
92 2 3.7908 13.4163 11.7973
134 3 2.36115 15.985 0.989639
162 3 2.43031 17.5441 3.00159
97 3 1.11028 18.2259 0.832967
138 3 3.80517 18.2227 1.03119
230 3 2.42129 15.8368 5.09329
234 3 3.6921 18.1908 5.19735
193 3 1.11061 18.1998 5.13537
258 3 2.42008 17.3706 7.38815
326 3 2.42857 15.7937 9.3936
330 3 3.81853 18.1731 9.38552
290 3 1.03022 18.0657 9.44887
36 1 2.81127 16.8948 11.8283
67 2 2.45735 15.7085 11.7854
94 2 3.74301 18.188 11.9795
34 1 1.57074 15.6642 11.9464
114 3 7.67152 1.81958 0.954663
186 3 6.41456 1.09283 3.06788
141 3 5.20097 1.8634 0.99236
210 3 7.76537 1.87725 5.29176
237 3 5.08346 1.94035 5.25567
282 3 6.42884 1.03274 7.43957
333 3 5.06387 1.87531 9.37374
306 3 7.77585 1.82952 9.49981
22 1 6.58916 2.8489 13.4035
60 1 4.10473 2.55546 13.4697
50 1 4.7218 3.00165 14.659
90 2 4.80737 2.30745 13.9661
44 1 6.55363 0.971338 12.8316
121 3 6.46533 4.13791 0.85793
189 3 7.75798 3.45896 3.02515
165 3 5.11319 3.35974 3.11021
149 3 6.35022 5.76274 3.0154
217 3 6.47518 4.21495 5.18584
245 3 6.46318 5.72238 7.31615
261 3 5.13035 3.46809 7.30248
286 3 7.7366 3.37813 7.42874
313 3 6.41142 4.20225 9.45919
9 1 7.20099 3.13049 11.8848
95 2 7.315 3.2993 12.9193
54 1 7.38028 5.54389 13.0362
58 1 4.16221 5.18749 16.4302
153 3 7.78567 8.07805 2.97531
181 3 5.09424 8.07266 3.08837
105 3 5.24803 6.56536 0.789456
109 3 6.47123 8.85176 0.898137
125 3 7.77612 6.47813 0.847999
221 3 7.78589 6.4564 5.22046
201 3 5.11355 6.46664 5.14505
205 3 6.51018 8.86897 5.25144
277 3 5.17422 8.09078 7.46288
249 3 7.90513 8.12593 7.35804
317 3 7.83334 6.43368 9.33411
297 3 5.12312 6.4494 9.45907
301 3 6.45711 8.82323 9.50942
96 2 7.69609 6.50907 12.8767
48 1 6.62515 8.05015 12.4125
81 2 6.37307 8.80311 11.8336
26 1 5.4348 9.06315 12.1106
40 1 8.04874 6.42725 12.0333
185 3 6.4182 10.3386 3.02415
142 3 5.08442 11.2109 1.09796
113 3 7.78611 11.2361 1.04763
209 3 7.79318 11.2018 5.2417
238 3 5.18262 11.1834 5.25326
281 3 6.45545 10.3895 7.41422
305 3 7.85181 11.1096 9.56071
334 3 5.21206 11.0737 9.5174
74 2 7.82769 11.0976 11.9213
33 1 7.44872 10.1526 12.072
122 3 6.48938 13.5261 1.03385
190 3 7.81823 12.6429 3.08195
166 3 5.05836 12.8604 3.10852
150 3 6.44826 15.0772 3.07322
218 3 6.55459 13.6141 5.30118
262 3 5.1022 12.7677 7.43721
285 3 7.85246 12.7169 7.45491
246 3 6.43528 15.0802 7.40854
314 3 6.41885 13.5068 9.46016
49 1 7.1701 14.1438 12.3163
93 2 6.40326 13.3396 11.9713
25 1 4.68803 13.4119 11.7818
12 1 6.83124 12.4516 12.22
126 3 7.77597 15.838 0.965179
154 3 7.82087 17.3599 3.01615
182 3 5.14919 17.4509 3.06911
106 3 5.03306 15.8483 0.934676
110 3 6.37391 18.1989 0.953342
222 3 7.84711 15.8629 5.17951
202 3 5.1679 15.8325 5.23393
206 3 6.43993 18.1637 5.21491
250 3 7.8084 17.3517 7.35018
278 3 5.11113 17.3786 7.35091
318 3 7.79021 15.8413 9.53104
298 3 5.07087 15.9088 9.38682
302 3 6.52109 18.2208 9.53092
14 1 7.49417 16.4186 12.4876
59 1 4.67407 18.4896 12.0468
65 2 7.85836 15.6606 12.2364
68 2 6.73441 18.5874 12.6008
47 1 7.36688 18.5236 11.7789
135 3 10.4796 1.76257 0.99117
179 3 11.8944 0.991023 2.96951
159 3 9.16365 1.10852 3.06583
231 3 10.5333 1.81952 5.13565
275 3 11.7591 0.992207 7.2837
254 3 9.06708 1.06471 7.34685
327 3 10.4216 1.76112 9.40526
19 1 9.39964 1.15659 12.1625
13 1 10.5225 2.55159 12.1582
89 2 10.3752 1.56933 11.7741
139 3 11.8939 4.20553 0.85531
163 3 10.4907 3.32183 2.96927
100 3 9.0041 4.21356 1.03058
172 3 9.07087 5.72691 3.01501
148 3 11.8379 5.76335 2.97808
235 3 11.8028 4.15312 5.19781
196 3 9.17786 4.14675 5.22376
244 3 11.8901 5.64533 7.37332
265 3 9.14476 5.71805 7.36799
259 3 10.5447 3.41173 7.40905
331 3 11.7628 4.12131 9.40412
291 3 9.062 4.18474 9.45354
43 1 9.52269 4.12726 13.2746
75 2 10.221 4.19188 12.6551
32 1 9.85767 4.6205 11.7347
120 3 10.4394 6.51684 0.938319
176 3 10.4246 8.06481 3.03241
104 3 11.8609 8.84305 1.01003
132 3 9.26357 8.85215 0.920823
228 3 9.10967 8.84671 5.15639
216 3 10.4825 6.52248 5.1724
200 3 11.9164 8.84914 5.10333
272 3 10.5086 8.0864 7.28489
312 3 10.4835 6.46768 9.41678
324 3 9.24345 8.82029 9.40998
296 3 11.8849 8.83154 9.44475
70 2 10.4206 7.55894 12.2753
52 1 9.79991 7.47032 12.9318
23 1 9.91368 7.59376 11.4631
41 1 12.1054 7.02385 11.9749
136 3 10.4167 11.232 1.02933
180 3 11.9042 10.4457 3.05538
160 3 9.18926 10.3487 3.07373
232 3 10.5366 11.1264 5.20951
276 3 11.9029 10.4191 7.3255
253 3 9.21309 10.3715 7.33677
328 3 10.4824 11.0822 9.49981
28 1 8.66778 11.0822 12.2304
45 1 11.4709 10.5899 13.0456
84 2 10.7923 11.1517 12.6689
15 1 10.9964 11.0304 11.5257
140 3 11.8429 13.5816 1.04838
164 3 10.5507 12.6499 3.08946
99 3 9.21631 13.4894 1.01809
147 3 11.8659 15.0422 3.06628
171 3 9.18566 14.9747 3.15881
236 3 11.8996 13.5459 5.16922
195 3 9.27917 13.4794 5.26999
260 3 10.5166 12.6588 7.44988
266 3 9.18403 15.0651 7.42685
243 3 11.8026 15.1014 7.41052
332 3 11.857 13.537 9.45971
292 3 9.14247 13.5127 9.4881
76 2 11.9092 13.6555 11.9448
18 1 11.6025 14.4398 12.3423
53 1 11.5938 12.9117 12.428
119 3 10.5249 15.7474 1.04666
175 3 10.5793 17.3767 3.02925
131 3 8.9524 18.2109 1.04593
103 3 11.8446 18.169 0.898039
215 3 10.514 15.9055 5.21173
227 3 9.08963 18.2082 5.25698
199 3 11.8339 18.1763 5.1419
271 3 10.4796 17.3979 7.31829
311 3 10.4509 15.8956 9.48534
323 3 9.13169 18.0932 9.46817
295 3 11.8161 18.209 9.44913
87 2 11.2578 16.1159 12.8194
7 1 11.1453 16.8357 12.1341
4 1 11.8951 16.4657 13.6431
62 1 8.96583 15.6896 12.1918
151 3 14.5316 1.17901 3.07172
107 3 13.1565 1.77684 0.971091
127 3 15.9092 1.83836 0.969234
223 3 15.8836 1.82406 5.22598
203 3 13.1382 1.89904 5.20932
247 3 14.5381 0.974496 7.29546
299 3 13.2949 1.72042 9.48864
319 3 15.8604 1.82622 9.4336
78 2 15.3374 1.13401 12.6295
24 1 14.8116 1.46257 11.7816
30 1 16.1309 0.434424 12.1509
111 3 14.4428 4.22715 0.89605
155 3 15.8615 3.4096 3.02777
183 3 13.2425 3.51468 3.03406
187 3 14.5775 5.79107 3.02134
207 3 14.5476 4.23404 5.24723
283 3 14.4998 5.66097 7.30227
279 3 13.2797 3.3364 7.40509
251 3 15.9045 3.40685 7.40299
303 3 14.4725 4.10417 9.52657
46 1 13.1907 5.91763 12.3945
55 1 13.1908 3.86571 11.9934
91 2 13.0086 4.21273 12.9534
21 1 16.1607 3.98131 11.6258
2 1 12.1988 3.76675 13.2622
63 1 15.9929 3.22294 13.0358
115 3 15.8324 6.51269 0.962395
192 3 15.8693 8.07616 3.00478
168 3 13.207 7.97999 3.0255
144 3 13.1413 6.52565 0.899066
124 3 14.4935 8.90491 0.984662
211 3 15.9584 6.58264 5.1522
240 3 13.1419 6.4041 5.20486
220 3 14.4938 8.76785 5.18457
287 3 15.9092 8.10594 7.2717
264 3 13.2057 7.99988 7.29047
336 3 13.2327 6.48193 9.51382
307 3 15.8133 6.44858 9.35478
316 3 14.516 8.78559 9.36743
86 2 14.9493 8.61087 12.7336
29 1 15.8932 7.8998 12.7477
10 1 14.2191 7.99918 12.3773
77 2 13.0154 6.69399 11.8618
128 3 15.9271 11.2649 0.888947
152 3 14.5079 10.4196 3.01558
108 3 13.2528 11.2104 0.937874
224 3 15.9221 11.2369 5.09947
204 3 13.2627 11.2626 5.25786
248 3 14.5729 10.4237 7.35285
300 3 13.1743 11.2519 9.35621
320 3 15.8784 11.1247 9.44658
5 1 12.9125 9.63799 10.6211
57 1 15.5001 9.85171 11.9243
79 2 15.9007 10.7801 11.6339
112 3 14.6146 13.5408 0.959368
156 3 15.8796 12.7426 3.03898
184 3 13.252 12.7355 3.09724
188 3 14.5567 15.0423 2.91645
208 3 14.5581 13.501 5.2412
280 3 13.1484 12.799 7.32692
284 3 14.4747 15.1011 7.30944
252 3 15.8517 12.734 7.33393
304 3 14.524 13.4854 9.37285
88 2 14.5969 13.4087 11.8441
6 1 13.5881 13.2839 11.7705
37 1 15.3967 14.9294 12.1726
39 1 14.9521 12.4719 11.7795
116 3 15.9642 15.8744 0.939748
191 3 15.8437 17.4206 3.0204
167 3 13.1951 17.4018 2.91351
143 3 13.1795 15.8399 0.933207
123 3 14.6637 18.2086 0.838178
212 3 15.9048 15.8595 5.13505
239 3 13.1991 15.8805 5.14686
219 3 14.5527 18.1697 5.16098
288 3 15.8715 17.3721 7.30613
263 3 13.152 17.3965 7.41508
308 3 15.9264 15.7862 9.39718
335 3 13.1139 15.902 9.4463
315 3 14.4582 18.1573 9.39687
82 2 13.8763 17.4237 13.0417
64 1 15.4737 16.5027 12.1117
72 2 16.0059 15.7477 11.8868
51 1 14.1649 18.3511 13.2971
61 1 13.4412 17.6384 12.0661
