ITEM: TIMESTEP
120000000
ITEM: NUMBER OF ATOMS
336
ITEM: BOX BOUNDS pp pp pp
0.0000000000000000e+00 1.6167135238600000e+01
0.0000000000000000e+00 1.8668199539200000e+01
0.0000000000000000e+00 2.5747400283800001e+01
ITEM: ATOMS id type x y z
117 3 2.50957 1.92903 1.01245
145 3 3.71938 1.19437 3.1728
169 3 1.09415 1.10582 3.00458
213 3 2.41486 1.80735 5.18938
267 3 0.973666 1.02472 7.35562
241 3 3.76542 1.05257 7.39266
309 3 2.36489 1.83551 9.42315
3 1 3.15708 0.39085 12.0011
35 1 3.02396 2.49581 11.6507
66 2 2.57407 2.37059 12.584
60 1 3.94129 2.28683 13.5039
8 1 1.77344 2.93073 12.5926
101 3 3.65601 4.18466 0.964328
173 3 2.34643 3.46248 3.12178
129 3 1.076 4.19557 0.937063
157 3 0.992277 5.75195 3.10595
177 3 3.79776 5.72202 3.03505
197 3 3.72491 4.22659 5.24598
225 3 0.93917 4.19298 5.21272
255 3 1.0877 5.75568 7.33768
273 3 3.7796 5.69275 7.3383
269 3 2.42728 3.38588 7.36512
321 3 0.984184 4.22793 9.53537
293 3 3.67809 4.08524 9.51405
56 1 0.829611 5.51596 12.7903
20 1 3.6746 5.68084 11.885
71 2 0.273429 3.95392 12.5791
69 2 3.8554 4.25859 16.0691
1 1 3.17703 3.89642 16.6406
58 1 3.77168 5.23538 16.2722
133 3 2.39098 6.55215 1.00813
161 3 2.48173 7.98069 2.98701
137 3 3.74752 8.89375 1.0097
98 3 1.11786 8.90039 0.950033
229 3 2.40554 6.51842 5.19796
194 3 1.11724 8.92721 5.22664
233 3 3.89289 8.78804 5.24964
257 3 2.39267 8.03781 7.36666
325 3 2.47261 6.4521 9.35081
329 3 3.74028 8.73904 9.55157
289 3 1.00254 8.68621 9.3113
11 1 0.932841 6.6725 11.5774
83 2 3.80872 9.16113 11.6235
80 2 0.999361 6.48737 12.6082
27 1 3.5597 8.27769 11.9052
73 2 3.67865 6.3597 12.6476
42 1 2.74079 6.29185 12.9894
118 3 2.46412 11.2094 1.02308
146 3 3.74192 10.4138 3.07177
170 3 1.01382 10.4485 2.99663
214 3 2.41537 11.2817 5.1413
268 3 1.03466 10.4249 7.26005
242 3 3.79255 10.3656 7.40521
310 3 2.35648 11.142 9.31155
16 1 0.751299 10.8346 11.7894
85 2 2.35582 11.0714 11.5513
31 1 3.03533 10.2009 11.6688
17 1 3.14819 11.8712 11.6822
102 3 3.80257 13.5302 0.938573
174 3 2.3841 12.7815 3.05346
130 3 1.12535 13.59 1.0117
178 3 3.7772 15.1419 3.01974
158 3 1.06346 15.1587 2.90453
198 3 3.80187 13.5058 5.28681
226 3 1.07717 13.5298 5.1774
270 3 2.38792 12.743 7.32152
256 3 1.05156 15.028 7.33864
274 3 3.79388 15.0757 7.36334
294 3 3.82235 13.4783 9.52056
322 3 0.986166 13.5054 9.26793
38 1 3.18133 14.3375 12.0651
92 2 3.72759 13.3696 11.8054
134 3 2.37651 15.9728 0.967739
162 3 2.42431 17.5386 3.02218
97 3 1.09744 18.2487 0.836629
138 3 3.79413 18.2255 1.00023
230 3 2.41694 15.8222 5.11635
193 3 1.1137 18.1821 5.12886
234 3 3.66932 18.167 5.18925
258 3 2.40439 17.3857 7.38783
326 3 2.44681 15.8122 9.35539
330 3 3.80237 18.1668 9.40489
290 3 1.02696 18.0818 9.44246
36 1 2.71098 16.6359 11.8771
67 2 2.42453 15.6532 11.8737
94 2 3.717 18.229 11.9671
34 1 1.50621 15.6129 12.1029
114 3 7.68541 1.81647 0.950846
186 3 6.40821 1.09505 3.08447
141 3 5.20645 1.8507 0.983058
210 3 7.75505 1.85589 5.30556
237 3 5.10593 1.94257 5.2939
282 3 6.4414 1.0181 7.45713
333 3 5.06272 1.87668 9.37969
306 3 7.79681 1.84988 9.48413
47 1 7.10484 0.044145 11.8998
44 1 6.66226 0.863337 12.9346
90 2 4.77604 2.21494 13.9411
22 1 6.31866 2.9678 12.9833
50 1 4.65777 2.81891 14.7186
121 3 6.46204 4.14973 0.87549
189 3 7.77105 3.44092 3.01948
165 3 5.1291 3.36465 3.12692
149 3 6.3848 5.8104 3.0191
217 3 6.45999 4.21719 5.17026
245 3 6.48686 5.72116 7.29314
261 3 5.10901 3.45595 7.31607
286 3 7.75136 3.39332 7.4558
313 3 6.41353 4.19271 9.42026
95 2 7.27907 3.3333 12.8824
54 1 7.51097 5.83821 13.3006
9 1 7.07654 3.19346 11.7773
153 3 7.78572 8.06584 2.96718
181 3 5.08119 8.08881 3.07553
105 3 5.23974 6.54792 0.788413
109 3 6.46687 8.86059 0.893547
125 3 7.77947 6.50821 0.858303
221 3 7.79044 6.45791 5.22849
201 3 5.08847 6.4858 5.15552
205 3 6.51525 8.85407 5.26501
277 3 5.2074 8.08451 7.46357
249 3 7.86048 8.12789 7.36491
317 3 7.81076 6.42863 9.34959
297 3 5.14253 6.47171 9.44316
301 3 6.4781 8.82523 9.53153
96 2 7.68698 6.54542 12.9179
48 1 6.41137 7.93659 12.2766
81 2 6.41723 8.78349 11.8452
26 1 5.4363 9.15182 12.0209
185 3 6.39276 10.3681 3.00113
142 3 5.10262 11.1556 1.0831
113 3 7.79155 11.2334 1.05405
209 3 7.80029 11.1806 5.26556
238 3 5.18472 11.2027 5.25215
281 3 6.42911 10.4141 7.43629
334 3 5.22945 11.0944 9.50659
305 3 7.83762 11.1378 9.53977
33 1 7.18613 10.349 12.1745
74 2 7.8477 11.1113 11.9382
122 3 6.49547 13.5297 1.00125
190 3 7.79125 12.6732 3.11146
166 3 5.06678 12.9034 3.10492
150 3 6.46223 15.0924 3.07826
218 3 6.54169 13.62 5.3154
285 3 7.85166 12.7021 7.46668
262 3 5.12467 12.7565 7.42639
246 3 6.4172 15.0323 7.41231
314 3 6.4443 13.4796 9.47581
25 1 4.72067 13.3993 11.8358
49 1 7.19441 14.139 12.2597
93 2 6.43041 13.3963 11.9504
12 1 7.04032 12.5604 11.9744
126 3 7.79369 15.8281 0.93853
154 3 7.81681 17.3732 3.03682
182 3 5.13501 17.4489 3.085
106 3 5.03621 15.8515 0.920986
110 3 6.39265 18.1974 0.975525
222 3 7.86041 15.8362 5.20734
202 3 5.11887 15.817 5.23361
206 3 6.44542 18.1625 5.23747
250 3 7.8265 17.3362 7.33984
278 3 5.13043 17.371 7.33428
298 3 5.07141 15.9004 9.38371
318 3 7.80315 15.796 9.57225
302 3 6.52775 18.2256 9.50531
65 2 7.8226 15.6568 12.2419
14 1 7.31319 16.224 12.5747
59 1 4.65819 18.5854 12.183
68 2 6.73875 18.5863 12.6465
135 3 10.4955 1.74995 1.0078
179 3 11.9106 0.955787 2.99542
159 3 9.1886 1.07488 3.06411
231 3 10.5499 1.8226 5.12177
275 3 11.7436 1.01761 7.27255
254 3 9.0629 1.0712 7.34456
327 3 10.4461 1.75823 9.40533
13 1 10.198 2.47611 12.1305
19 1 9.68521 0.950455 11.7537
89 2 10.3246 1.55971 11.798
139 3 11.8736 4.21998 0.886775
163 3 10.4956 3.31869 2.99985
100 3 9.00405 4.20406 1.00407
172 3 9.10904 5.71415 3.01372
148 3 11.8239 5.74461 3.0102
235 3 11.8234 4.15357 5.16001
196 3 9.20226 4.16688 5.20936
244 3 11.8788 5.65873 7.40456
265 3 9.12695 5.74162 7.36659
259 3 10.5479 3.41195 7.40313
331 3 11.7861 4.1162 9.4408
291 3 9.04856 4.16428 9.44652
43 1 9.43281 3.84279 13.0205
75 2 10.1491 4.17476 12.6766
32 1 9.87294 4.31652 11.9033
2 1 12.0389 4.03991 13.0013
120 3 10.4217 6.49766 0.930366
176 3 10.448 8.03022 3.04806
104 3 11.8825 8.8346 1.00214
132 3 9.2247 8.88239 0.920567
216 3 10.516 6.52647 5.19923
200 3 11.9256 8.85403 5.10035
228 3 9.09865 8.84701 5.16061
272 3 10.5463 8.09882 7.27881
312 3 10.4711 6.48032 9.40337
296 3 11.8797 8.82653 9.47653
324 3 9.24678 8.811 9.39688
52 1 9.82254 7.30463 12.9009
70 2 10.4599 7.5931 12.2875
23 1 10.0045 7.96413 11.4835
41 1 12.1072 6.99382 11.933
40 1 8.2981 6.32765 12.1186
136 3 10.432 11.2396 1.04608
180 3 11.9159 10.439 3.03621
160 3 9.16486 10.3465 3.09714
232 3 10.5513 11.1707 5.21511
276 3 11.9066 10.4322 7.34153
253 3 9.22267 10.4164 7.36173
328 3 10.4947 11.105 9.48873
84 2 10.787 11.2392 12.7792
28 1 8.79296 11.0988 12.3071
45 1 11.5392 10.6509 12.8325
15 1 10.8544 11.3305 11.7978
140 3 11.8419 13.629 1.05349
164 3 10.5437 12.6432 3.09481
99 3 9.21291 13.4947 1.00492
147 3 11.873 15.033 3.08932
171 3 9.18102 14.9993 3.16585
236 3 11.8774 13.5683 5.14507
195 3 9.28429 13.4936 5.24032
266 3 9.18691 15.0532 7.46757
243 3 11.8096 15.1012 7.37489
260 3 10.5014 12.6817 7.45539
332 3 11.7946 13.541 9.42872
292 3 9.13606 13.5471 9.50996
76 2 11.8751 13.6421 11.9033
18 1 11.4698 14.3986 12.0454
53 1 11.369 13.0218 12.4724
119 3 10.5365 15.7705 1.04052
175 3 10.5321 17.3632 3.05214
131 3 8.97076 18.2129 1.03948
103 3 11.8965 18.1491 0.882617
215 3 10.5005 15.9154 5.23036
227 3 9.11225 18.1845 5.25992
199 3 11.862 18.1836 5.19736
271 3 10.484 17.3868 7.34059
311 3 10.4388 15.8659 9.51839
323 3 9.12127 18.0879 9.47319
295 3 11.8226 18.2033 9.43208
7 1 11.2128 16.6269 11.9767
87 2 11.2289 16.0434 12.8462
4 1 11.7719 16.3748 13.4563
62 1 8.69004 15.8413 12.1776
151 3 14.5064 1.21261 3.10523
107 3 13.1479 1.75524 0.972593
127 3 15.8929 1.85539 0.956408
223 3 15.8968 1.86891 5.24474
203 3 13.1572 1.90212 5.17794
247 3 14.5518 1.0093 7.29237
319 3 15.8766 1.84237 9.44261
299 3 13.3049 1.71454 9.45987
78 2 15.3334 1.19195 12.7156
24 1 14.765 1.4394 11.9879
30 1 15.8913 0.590513 12.1874
111 3 14.4311 4.21824 0.915448
155 3 15.8759 3.428 3.02481
183 3 13.2391 3.49572 3.01087
187 3 14.577 5.75731 2.98333
207 3 14.566 4.25861 5.24277
283 3 14.4926 5.64757 7.30264
279 3 13.2782 3.34288 7.40749
251 3 15.9075 3.38475 7.40558
303 3 14.4684 4.08696 9.52927
91 2 13.0092 4.24274 12.9885
46 1 13.1649 5.97472 12.4379
55 1 13.2794 3.58047 12.1919
63 1 16.1652 3.19326 13.0522
21 1 15.9994 3.9972 11.7109
115 3 15.8489 6.56148 0.966102
192 3 15.9003 8.07091 2.99516
168 3 13.2326 8.01997 3.00534
144 3 13.1926 6.52983 0.917261
124 3 14.5159 8.91703 0.983314
211 3 15.947 6.56374 5.17084
240 3 13.1455 6.42495 5.18807
220 3 14.51 8.75216 5.17917
287 3 15.9184 8.13025 7.24792
264 3 13.2073 8.03197 7.27589
307 3 15.8228 6.46427 9.36081
336 3 13.2701 6.50849 9.50948
316 3 14.5424 8.80121 9.39401
77 2 13.0065 6.70275 11.7815
10 1 14.3452 8.03634 12.4227
86 2 14.9601 8.63174 12.767
29 1 15.6173 7.99829 12.834
128 3 15.9183 11.2573 0.886374
152 3 14.5247 10.434 3.03069
108 3 13.2663 11.2114 0.97742
224 3 15.9499 11.2337 5.10448
204 3 13.2667 11.2624 5.26601
248 3 14.5801 10.4304 7.33979
320 3 15.8523 11.1627 9.43273
300 3 13.1812 11.2472 9.35346
5 1 13.0048 9.7849 10.5896
79 2 15.8366 10.7297 11.6604
57 1 15.4045 9.94906 12.1346
112 3 14.6277 13.5473 0.984112
156 3 15.8707 12.7516 3.01502
184 3 13.2521 12.7673 3.08572
188 3 14.5675 15.0789 2.93556
208 3 14.5663 13.5007 5.22721
280 3 13.1667 12.7742 7.33782
284 3 14.4884 15.1143 7.3042
252 3 15.8503 12.7647 7.28819
304 3 14.5497 13.5048 9.38768
88 2 14.5838 13.3589 11.8573
6 1 13.6495 13.2058 12.2075
37 1 15.4984 15.0019 12.1445
39 1 15.0707 12.4456 11.815
116 3 15.9574 15.9061 0.968525
191 3 15.8447 17.4203 3.07011
167 3 13.2348 17.3851 2.92833
143 3 13.1832 15.8362 0.955199
123 3 14.6768 18.2234 0.827265
239 3 13.2232 15.8988 5.12238
212 3 15.8929 15.8755 5.15703
219 3 14.5535 18.1648 5.19549
288 3 15.8868 17.3882 7.28869
263 3 13.1542 17.3892 7.40062
335 3 13.0871 15.8955 9.46503
308 3 15.9178 15.8121 9.44609
315 3 14.4666 18.1697 9.39742
64 1 15.3665 16.6259 12.3045
82 2 13.9383 17.3986 12.9815
51 1 14.0443 18.3281 13.4825
61 1 13.3638 17.4179 12.0766
72 2 15.9441 15.8458 11.8992
