ITEM: TIMESTEP
120000000
ITEM: NUMBER OF ATOMS
336
ITEM: BOX BOUNDS pp pp pp
0.0000000000000000e+00 1.6167135238600000e+01
0.0000000000000000e+00 1.8668199539200000e+01
0.0000000000000000e+00 2.5747400283800001e+01
ITEM: ATOMS id type x y z
117 3 2.48423 1.91287 1.05171
145 3 3.74792 1.17137 3.16362
169 3 1.08571 1.1204 2.99827
213 3 2.42284 1.82752 5.20482
241 3 3.75838 1.06139 7.35629
267 3 0.969453 1.06631 7.3707
309 3 2.33043 1.83499 9.44447
3 1 3.08353 0.268915 12.2704
66 2 2.61233 2.3797 12.6309
8 1 1.84355 2.93895 12.7
35 1 2.74234 2.68824 11.4989
60 1 4.03861 2.45613 13.4042
101 3 3.66395 4.19134 0.979708
173 3 2.35051 3.42849 3.08551
129 3 1.1049 4.17424 0.911576
157 3 0.974288 5.74302 3.07682
177 3 3.76997 5.70067 3.06134
197 3 3.73545 4.22592 5.25793
225 3 0.954018 4.19131 5.26188
255 3 1.08233 5.7893 7.32402
273 3 3.78656 5.69937 7.33244
269 3 2.41686 3.40025 7.36643
321 3 1.00134 4.23049 9.53208
293 3 3.61726 4.10433 9.48093
56 1 0.60714 5.56537 12.8334
71 2 0.254174 3.92933 12.6407
20 1 3.72952 5.99309 11.6953
1 1 3.0461 3.98668 16.7837
69 2 3.85092 4.25781 16.0652
133 3 2.38539 6.54197 0.947337
161 3 2.48293 8.00062 2.99075
137 3 3.75158 8.89437 0.992694
98 3 1.11422 8.91044 0.955987
229 3 2.43697 6.54004 5.19477
194 3 1.11153 8.92434 5.22713
233 3 3.87572 8.79634 5.28601
257 3 2.42977 8.024 7.35045
325 3 2.48742 6.46096 9.35635
289 3 1.00866 8.71857 9.33093
329 3 3.73183 8.73034 9.533
83 2 3.88389 9.10889 11.6834
80 2 0.97412 6.47382 12.6854
42 1 2.69554 6.42995 12.7659
27 1 3.65889 8.37604 12.2984
73 2 3.7097 6.37172 12.6235
11 1 0.807599 6.63059 11.626
118 3 2.48112 11.2049 1.0307
146 3 3.74521 10.4101 3.10288
170 3 1.00634 10.4489 2.99264
214 3 2.44448 11.2694 5.12396
268 3 1.02678 10.3773 7.25784
242 3 3.81976 10.3373 7.40971
310 3 2.35607 11.1608 9.33518
16 1 0.774374 10.8454 11.7143
31 1 3.04015 10.0612 11.5677
85 2 2.31441 11.0222 11.5481
17 1 2.81548 11.9612 11.7471
174 3 2.39597 12.7802 3.06791
130 3 1.14959 13.5646 0.999346
158 3 1.05911 15.1687 2.87957
178 3 3.74728 15.1473 3.0013
102 3 3.83625 13.5618 0.924646
198 3 3.79772 13.4753 5.29345
226 3 1.08286 13.5552 5.14835
270 3 2.38369 12.7614 7.29367
256 3 1.03677 14.9855 7.3251
274 3 3.75797 15.0614 7.36912
294 3 3.81367 13.4657 9.49276
322 3 1.01774 13.5217 9.28271
38 1 3.53117 14.3649 12.2079
92 2 3.75836 13.4399 11.7895
134 3 2.36793 15.9814 0.986524
162 3 2.43071 17.5313 3.01928
138 3 3.81239 18.2285 1.02666
97 3 1.11121 18.2255 0.838001
230 3 2.40269 15.8378 5.09986
234 3 3.69193 18.1996 5.19266
193 3 1.10548 18.2028 5.13579
258 3 2.39562 17.3688 7.37409
326 3 2.42775 15.7901 9.3793
330 3 3.80979 18.1774 9.38405
290 3 1.03656 18.0748 9.44273
36 1 2.77034 16.7528 11.8038
67 2 2.46765 15.7402 11.8114
94 2 3.70898 18.1725 11.9975
34 1 1.60517 15.7127 11.9233
114 3 7.67599 1.81846 0.943958
186 3 6.42817 1.08207 3.06065
141 3 5.20565 1.86742 0.983589
210 3 7.77929 1.88566 5.29145
237 3 5.09874 1.94103 5.26469
282 3 6.42889 1.0334 7.45882
333 3 5.10282 1.86451 9.36606
306 3 7.76389 1.83644 9.49234
44 1 6.61533 0.904459 12.7706
90 2 4.80545 2.27907 13.9205
22 1 6.55857 2.73359 13.3887
50 1 4.5992 3.07015 14.4411
121 3 6.47768 4.14482 0.886652
189 3 7.75625 3.44774 3.00698
165 3 5.11377 3.36718 3.10699
149 3 6.35697 5.76297 3.01204
217 3 6.47408 4.20663 5.21004
245 3 6.46569 5.72163 7.30738
261 3 5.14777 3.46983 7.32194
286 3 7.73799 3.38672 7.42903
313 3 6.396 4.1942 9.44167
95 2 7.31023 3.3233 12.8819
9 1 7.08278 3.29007 11.924
54 1 7.50352 5.46389 13.1425
58 1 4.20769 5.25175 16.3288
153 3 7.78238 8.08019 2.97805
181 3 5.10711 8.0757 3.09153
105 3 5.23582 6.56515 0.789665
109 3 6.46467 8.85876 0.888385
125 3 7.77499 6.47433 0.845063
221 3 7.7906 6.45246 5.21664
201 3 5.1178 6.47009 5.14342
205 3 6.4992 8.8649 5.26578
277 3 5.18217 8.09654 7.46669
249 3 7.89841 8.12297 7.35961
317 3 7.82992 6.42869 9.3342
297 3 5.12889 6.47088 9.44467
301 3 6.45337 8.81684 9.51787
96 2 7.7125 6.52228 12.88
48 1 6.52235 7.93728 12.411
81 2 6.35851 8.7716 11.8506
26 1 5.53555 9.18846 12.3278
40 1 7.91304 6.46442 11.9749
185 3 6.42198 10.3331 3.01911
142 3 5.08577 11.228 1.09928
113 3 7.78217 11.2388 1.06341
209 3 7.81704 11.192 5.25562
238 3 5.17899 11.1873 5.25929
281 3 6.45194 10.3909 7.41512
305 3 7.84672 11.1189 9.54647
334 3 5.21531 11.077 9.51939
33 1 7.38023 10.098 12.0825
74 2 7.84595 11.0903 11.9588
122 3 6.49756 13.5302 1.01066
190 3 7.80169 12.6471 3.09088
166 3 5.06943 12.8667 3.11922
150 3 6.43191 15.0746 3.07836
218 3 6.55444 13.6204 5.29363
285 3 7.85246 12.7157 7.44831
262 3 5.11221 12.7742 7.4325
246 3 6.42497 15.0842 7.41432
314 3 6.42105 13.4996 9.46222
25 1 4.74708 13.4973 11.9425
49 1 7.03652 14.2105 12.2816
93 2 6.42128 13.3859 11.9801
12 1 6.76938 12.4714 12.1746
126 3 7.77553 15.8432 0.955259
154 3 7.82123 17.3505 3.02297
182 3 5.15256 17.4591 3.09293
106 3 5.02794 15.8576 0.948101
110 3 6.3603 18.1934 0.985881
222 3 7.83799 15.8602 5.18865
202 3 5.15949 15.8289 5.24881
206 3 6.44947 18.1593 5.23086
250 3 7.80849 17.3263 7.33551
278 3 5.10798 17.3752 7.35579
298 3 5.08337 15.9017 9.35893
318 3 7.79268 15.8367 9.5499
302 3 6.51447 18.2319 9.51283
14 1 7.33584 16.5017 12.4885
65 2 7.85438 15.6591 12.2462
59 1 4.60797 18.4537 12.1866
68 2 6.73777 18.6123 12.602
47 1 7.32981 18.6022 11.6221
135 3 10.4667 1.76284 0.997445
179 3 11.8643 0.991309 2.97726
159 3 9.1737 1.10521 3.06506
231 3 10.531 1.81807 5.14902
275 3 11.7602 1.00172 7.28315
254 3 9.07109 1.0798 7.33367
327 3 10.4249 1.7548 9.40885
89 2 10.4061 1.58832 11.7453
19 1 9.52951 1.09162 12.1798
13 1 10.3793 2.68114 12.263
139 3 11.8825 4.2184 0.871093
163 3 10.5004 3.31213 2.95711
100 3 8.99399 4.20806 1.0236
172 3 9.07266 5.73082 3.01048
148 3 11.8273 5.76476 2.9944
235 3 11.8087 4.15903 5.17659
196 3 9.17722 4.15847 5.2092
265 3 9.14462 5.72425 7.35314
244 3 11.8946 5.65632 7.35649
259 3 10.5379 3.40904 7.40851
331 3 11.7507 4.11714 9.40236
291 3 9.07076 4.17904 9.45051
43 1 9.41142 4.17934 13.2181
75 2 10.2127 4.24491 12.6674
32 1 9.81038 4.54905 11.6538
120 3 10.4439 6.51177 0.938173
176 3 10.4324 8.06818 3.02987
132 3 9.26124 8.86524 0.922878
104 3 11.8685 8.85267 1.02018
228 3 9.10888 8.85216 5.18241
216 3 10.4913 6.5218 5.16695
200 3 11.9133 8.84466 5.10107
272 3 10.5201 8.07966 7.29141
312 3 10.4705 6.45987 9.42821
296 3 11.8965 8.8373 9.43725
324 3 9.23639 8.82414 9.41151
70 2 10.4026 7.60801 12.2617
52 1 9.71531 7.47568 13.0308
23 1 9.96652 7.79816 11.4402
41 1 12.05 7.04887 11.9016
136 3 10.4287 11.228 1.03622
180 3 11.9163 10.4294 3.05311
160 3 9.19136 10.3502 3.07759
232 3 10.5381 11.1385 5.19996
276 3 11.9183 10.4245 7.31071
253 3 9.20744 10.3856 7.33557
328 3 10.4913 11.0794 9.51216
45 1 11.5925 10.5545 13.0906
28 1 8.78207 11.0923 12.3385
84 2 10.7704 11.0963 12.6617
15 1 11.1376 11.1126 11.6331
140 3 11.8404 13.5831 1.0469
164 3 10.536 12.6514 3.10324
99 3 9.21808 13.4967 1.0169
147 3 11.8606 15.0509 3.05534
171 3 9.19578 14.9728 3.15663
236 3 11.8944 13.557 5.17479
195 3 9.28448 13.4795 5.26956
260 3 10.5222 12.6616 7.44314
266 3 9.18664 15.0646 7.42788
243 3 11.7849 15.1076 7.40309
292 3 9.1632 13.5129 9.48693
332 3 11.8392 13.5507 9.45436
18 1 11.3851 14.3732 12.2825
76 2 11.9356 13.6412 11.9601
53 1 11.4969 12.8646 12.307
119 3 10.5366 15.7484 1.02851
175 3 10.5886 17.3655 3.05059
131 3 8.96154 18.2209 1.05058
103 3 11.8717 18.1625 0.886447
215 3 10.508 15.9099 5.21821
199 3 11.8361 18.1663 5.15994
227 3 9.09004 18.197 5.2572
271 3 10.4856 17.3903 7.32321
311 3 10.4507 15.8759 9.49442
323 3 9.13453 18.0882 9.45957
295 3 11.8145 18.1974 9.4448
87 2 11.2727 16.1301 12.8103
7 1 11.0749 16.7346 12.0328
4 1 11.9893 16.3107 13.4883
62 1 8.80355 15.6812 12.2885
151 3 14.5366 1.17418 3.06994
107 3 13.1619 1.75925 0.957169
127 3 15.9069 1.8317 0.956945
223 3 15.8762 1.83082 5.23069
203 3 13.1353 1.9008 5.19373
247 3 14.5363 0.992273 7.29463
319 3 15.8581 1.82429 9.44089
299 3 13.3002 1.72973 9.48632
78 2 15.3514 1.14754 12.6143
24 1 14.8737 1.37347 11.7931
30 1 16.1225 0.527125 12.1741
111 3 14.4381 4.22185 0.911675
155 3 15.8529 3.40592 3.02879
183 3 13.258 3.51645 3.01977
187 3 14.5712 5.80085 3.02317
207 3 14.5534 4.23307 5.23888
283 3 14.5089 5.63658 7.31538
279 3 13.2759 3.335 7.41244
251 3 15.9197 3.39937 7.37454
303 3 14.4735 4.0999 9.51987
91 2 13.0432 4.21021 12.9433
55 1 13.1639 3.87881 11.9656
46 1 13.1636 5.88193 12.288
63 1 16.0161 3.21751 12.9513
21 1 16.1433 3.94813 11.5979
2 1 12.2396 3.77926 13.0586
115 3 15.8336 6.51577 0.974307
192 3 15.8858 8.07989 3.00174
168 3 13.2236 7.99557 3.04111
144 3 13.1439 6.539 0.917334
124 3 14.5224 8.90988 0.985964
211 3 15.9448 6.58151 5.14204
240 3 13.1457 6.41801 5.19728
220 3 14.4933 8.77484 5.18235
287 3 15.9179 8.10759 7.271
264 3 13.1893 8.00551 7.28666
336 3 13.2419 6.49815 9.53067
307 3 15.8165 6.44867 9.34809
316 3 14.5137 8.79243 9.3832
29 1 15.9005 7.99879 12.7862
77 2 13.0041 6.70532 11.8394
10 1 14.1387 8.03478 12.5932
86 2 15.0001 8.60242 12.7284
128 3 15.9355 11.2609 0.887067
152 3 14.5132 10.4041 2.99855
108 3 13.2583 11.22 0.930896
224 3 15.9191 11.2239 5.10768
204 3 13.2565 11.2599 5.25605
248 3 14.5755 10.4381 7.36132
300 3 13.183 11.2497 9.36909
320 3 15.8572 11.1478 9.44281
5 1 12.7816 9.8065 10.7513
57 1 15.5185 9.85242 11.8509
79 2 15.86 10.7455 11.6096
112 3 14.6256 13.5259 0.957113
156 3 15.869 12.7428 3.03138
184 3 13.2456 12.7515 3.10254
188 3 14.551 15.0539 2.91523
208 3 14.5737 13.4911 5.22912
280 3 13.1669 12.7906 7.31894
284 3 14.466 15.1046 7.30749
252 3 15.8447 12.7463 7.33085
304 3 14.5205 13.5037 9.37186
88 2 14.5856 13.3986 11.8739
6 1 13.4999 13.1422 11.9928
37 1 15.2419 14.9116 12.0001
39 1 14.9572 12.5114 11.7612
116 3 15.9643 15.8711 0.935504
191 3 15.8316 17.4314 3.0347
167 3 13.1967 17.3919 2.9042
143 3 13.1686 15.831 0.929551
123 3 14.6489 18.2019 0.827377
212 3 15.8873 15.8692 5.1412
239 3 13.195 15.8741 5.13009
219 3 14.5752 18.1666 5.15534
288 3 15.861 17.3724 7.29315
263 3 13.1625 17.3927 7.40057
335 3 13.1081 15.898 9.44545
308 3 15.9286 15.8098 9.404
315 3 14.4558 18.1487 9.40833
64 1 15.3084 16.5424 12.056
82 2 13.8765 17.4381 13.0301
72 2 15.9882 15.7809 11.8771
61 1 13.4305 17.5371 12.071
51 1 14.0385 18.2634 13.4076
