ITEM: TIMESTEP
120000000
ITEM: NUMBER OF ATOMS
336
ITEM: BOX BOUNDS pp pp pp
0.0000000000000000e+00 1.6167135238600000e+01
0.0000000000000000e+00 1.8668199539200000e+01
0.0000000000000000e+00 2.5747400283800001e+01
ITEM: ATOMS id type x y z
117 3 2.4887 1.92205 1.06326
145 3 3.72063 1.18257 3.13423
169 3 1.0902 1.12066 3.01534
213 3 2.43376 1.82595 5.2217
241 3 3.76796 1.05506 7.34622
267 3 0.952483 1.06119 7.38489
309 3 2.34236 1.83919 9.43141
35 1 2.65779 2.81698 11.5008
66 2 2.62414 2.3632 12.613
3 1 3.26429 0.347624 12.2795
8 1 1.87526 3.06197 12.6237
60 1 3.97808 2.49655 13.4832
101 3 3.66418 4.19961 0.980646
173 3 2.36393 3.44585 3.13051
129 3 1.10011 4.16733 0.921474
157 3 1.00249 5.73854 3.07271
177 3 3.78207 5.72079 3.06542
197 3 3.73398 4.23391 5.25854
225 3 0.94033 4.18551 5.25649
255 3 1.07231 5.77375 7.32024
273 3 3.78853 5.69125 7.34676
269 3 2.39935 3.38128 7.38187
321 3 1.00246 4.22995 9.53363
293 3 3.65419 4.11553 9.491
56 1 0.646148 5.54641 12.6834
20 1 3.70269 5.71355 11.7687
71 2 0.304211 3.94487 12.6896
21 1 0.160029 4.07758 11.7188
69 2 3.81197 4.24048 16.084
1 1 3.12779 4.2406 16.7412
133 3 2.38077 6.53905 0.966425
161 3 2.48332 8.00866 2.97271
137 3 3.74268 8.89377 0.997154
98 3 1.10848 8.90567 0.953307
194 3 1.12005 8.91576 5.24091
229 3 2.42278 6.53985 5.19831
233 3 3.8628 8.78838 5.26575
257 3 2.42509 8.05714 7.32186
325 3 2.48428 6.44123 9.36533
289 3 1.00341 8.72792 9.3216
329 3 3.73427 8.74588 9.54727
11 1 0.895958 6.61618 11.7336
80 2 0.952552 6.42802 12.6962
27 1 3.50832 8.35707 12.1953
73 2 3.6506 6.34927 12.6652
83 2 3.86839 9.12025 11.6304
42 1 2.65055 6.33898 13.0316
118 3 2.49236 11.2184 1.04961
146 3 3.73527 10.3966 3.11751
170 3 1.01395 10.4452 3.0173
214 3 2.44255 11.2512 5.12602
268 3 1.03012 10.3961 7.30025
242 3 3.81565 10.3558 7.41384
310 3 2.36193 11.1386 9.33815
31 1 3.04546 10.0002 11.806
85 2 2.30718 11.0849 11.5403
16 1 0.691374 10.9765 11.7421
17 1 2.75548 11.9213 11.5456
174 3 2.40304 12.7875 3.07188
130 3 1.1483 13.5785 0.998914
158 3 1.04056 15.1735 2.89678
178 3 3.75406 15.1442 2.98502
102 3 3.84327 13.5869 0.934022
198 3 3.77486 13.4857 5.30135
226 3 1.09814 13.5429 5.14768
270 3 2.36948 12.7689 7.29044
274 3 3.74967 15.0572 7.34909
256 3 1.02814 14.9945 7.30467
294 3 3.82143 13.468 9.48539
322 3 1.00506 13.5235 9.28383
38 1 3.47187 14.2457 11.9653
92 2 3.77327 13.4129 11.7806
134 3 2.36475 15.9747 0.970977
162 3 2.43143 17.5428 3.00724
97 3 1.12464 18.2291 0.84414
138 3 3.82185 18.2144 1.02201
230 3 2.4323 15.8379 5.10227
193 3 1.1013 18.1922 5.13042
234 3 3.68607 18.1947 5.17799
258 3 2.41779 17.3839 7.39815
326 3 2.42188 15.7779 9.39484
330 3 3.81616 18.1595 9.38411
290 3 1.02533 18.0736 9.45214
36 1 2.829 16.8359 11.987
94 2 3.71091 18.1866 11.9495
67 2 2.46919 15.7254 11.8044
34 1 1.60999 15.7153 12.0808
114 3 7.66244 1.82095 0.953002
186 3 6.40312 1.0734 3.07121
141 3 5.18472 1.87146 0.985466
210 3 7.75202 1.87043 5.2952
237 3 5.10789 1.93698 5.27139
282 3 6.44054 1.02563 7.44706
333 3 5.07018 1.88278 9.37744
306 3 7.77807 1.81132 9.49996
22 1 6.54586 2.94977 13.2727
44 1 6.66017 0.888975 12.8443
50 1 4.67633 3.01742 14.5833
90 2 4.80156 2.28974 13.9963
9 1 7.30029 3.10037 11.8686
121 3 6.45759 4.14412 0.867732
189 3 7.7515 3.4625 3.03419
165 3 5.1156 3.35737 3.09626
149 3 6.35285 5.77291 3.02476
217 3 6.4865 4.21705 5.18501
261 3 5.13568 3.47835 7.30179
245 3 6.45426 5.71621 7.31551
286 3 7.72651 3.36779 7.42204
313 3 6.41296 4.20668 9.47102
54 1 7.40295 5.5052 13.0475
95 2 7.32423 3.3035 12.8826
58 1 4.11262 5.29222 16.382
153 3 7.78099 8.07639 2.9824
181 3 5.09595 8.08554 3.07709
105 3 5.22893 6.5711 0.784968
109 3 6.45693 8.86328 0.885283
125 3 7.77603 6.4967 0.854938
221 3 7.80166 6.45546 5.2262
201 3 5.11137 6.46393 5.14777
205 3 6.49966 8.85627 5.25599
277 3 5.17984 8.08995 7.46007
249 3 7.88212 8.11206 7.35642
297 3 5.12567 6.44993 9.46173
317 3 7.8343 6.4542 9.33983
301 3 6.46969 8.8169 9.52783
96 2 7.6391 6.56796 12.9003
48 1 6.52315 7.95698 12.4353
81 2 6.34936 8.82867 11.8371
26 1 5.43309 8.91146 11.9822
40 1 8.06735 6.51088 12.0749
185 3 6.43242 10.3426 3.00662
142 3 5.09707 11.1985 1.09425
113 3 7.78149 11.2388 1.03537
209 3 7.79276 11.196 5.25141
238 3 5.20043 11.1987 5.26302
281 3 6.46262 10.3943 7.41581
334 3 5.20539 11.0818 9.5137
305 3 7.86433 11.1133 9.54833
74 2 7.84072 11.0387 11.9208
33 1 7.48632 10.2754 12.2
12 1 6.89952 12.4339 12.1606
122 3 6.46868 13.5177 1.02962
190 3 7.80125 12.6406 3.08329
166 3 5.05522 12.8639 3.11261
150 3 6.44491 15.0612 3.08652
218 3 6.55351 13.6076 5.31957
262 3 5.0954 12.7689 7.43782
285 3 7.86167 12.7096 7.47421
246 3 6.44724 15.0797 7.4038
314 3 6.41809 13.5141 9.46562
49 1 7.13961 14.2224 12.2726
93 2 6.39768 13.3908 11.9441
25 1 4.66204 13.4415 11.9156
126 3 7.77764 15.8442 0.95794
154 3 7.82162 17.3741 2.9973
182 3 5.15361 17.4645 3.07469
106 3 5.0367 15.8511 0.913072
110 3 6.39246 18.2064 0.962443
222 3 7.85041 15.8588 5.17634
202 3 5.15469 15.8349 5.22918
206 3 6.43668 18.1704 5.20451
250 3 7.80761 17.3428 7.33168
278 3 5.09958 17.3723 7.34534
298 3 5.0577 15.9052 9.36757
318 3 7.79371 15.8331 9.5277
302 3 6.52248 18.2284 9.52818
65 2 7.83329 15.639 12.2153
14 1 7.42213 16.353 12.582
59 1 4.72039 18.5034 12.0761
68 2 6.73962 18.5559 12.6272
47 1 7.36566 18.4783 11.8736
135 3 10.4784 1.74145 1.0084
179 3 11.9101 0.994942 2.97562
159 3 9.16372 1.10051 3.07271
231 3 10.5637 1.82716 5.12683
275 3 11.7788 1.01203 7.29828
254 3 9.08905 1.07148 7.34057
327 3 10.4302 1.74432 9.40918
19 1 9.44659 1.1983 12.0902
13 1 10.3822 2.51995 12.1914
89 2 10.3458 1.60412 11.7663
139 3 11.8859 4.19986 0.862972
163 3 10.4903 3.30838 2.96817
100 3 8.99774 4.21961 1.03963
172 3 9.09182 5.72701 3.01762
148 3 11.8313 5.76482 2.99308
235 3 11.8094 4.15434 5.18953
196 3 9.19071 4.15538 5.22429
244 3 11.8812 5.65816 7.39374
265 3 9.1346 5.71094 7.36441
259 3 10.5454 3.40109 7.40783
291 3 9.04833 4.18065 9.46682
331 3 11.7734 4.11796 9.41131
32 1 9.93429 4.51868 11.8379
75 2 10.2411 4.18361 12.6773
43 1 9.36824 4.14539 13.2771
120 3 10.4412 6.49473 0.933869
176 3 10.4295 8.07187 3.03945
132 3 9.28202 8.87237 0.918316
104 3 11.8734 8.84814 1.00814
216 3 10.4811 6.51542 5.17527
228 3 9.1102 8.84112 5.14977
200 3 11.9175 8.85697 5.10251
272 3 10.5112 8.08733 7.28624
312 3 10.4837 6.47134 9.4176
296 3 11.8945 8.81366 9.44583
324 3 9.24559 8.8236 9.40708
70 2 10.4065 7.55501 12.2899
52 1 9.75126 7.51351 12.9154
23 1 9.95849 7.86366 11.5595
41 1 11.97 6.86718 11.934
136 3 10.427 11.2276 1.01793
180 3 11.9231 10.438 3.05637
160 3 9.18032 10.3294 3.06723
232 3 10.5225 11.1338 5.21324
276 3 11.9053 10.4176 7.32732
253 3 9.20841 10.3874 7.35407
328 3 10.4894 11.0697 9.46829
28 1 8.70846 11.1031 12.3545
45 1 11.5835 10.4778 13.0769
84 2 10.7508 11.1657 12.6982
15 1 10.8444 11.0033 11.6289
140 3 11.8468 13.6129 1.04934
164 3 10.5469 12.6435 3.10273
99 3 9.20302 13.4965 1.02569
171 3 9.19219 14.9852 3.16838
147 3 11.8612 15.0181 3.07842
236 3 11.9049 13.5415 5.16723
195 3 9.28358 13.4793 5.28497
260 3 10.5172 12.6663 7.44926
266 3 9.18846 15.0477 7.42478
243 3 11.8001 15.096 7.40273
292 3 9.14953 13.5257 9.48178
332 3 11.8654 13.5429 9.45787
76 2 11.9321 13.6528 11.9586
18 1 11.4735 14.5642 12.2404
53 1 11.5618 12.8037 12.4307
119 3 10.5083 15.7472 1.03829
175 3 10.5672 17.3742 3.02052
131 3 8.95205 18.2086 1.04182
103 3 11.8598 18.1704 0.905747
215 3 10.5086 15.9205 5.21811
227 3 9.08838 18.2142 5.26673
199 3 11.8459 18.1748 5.14881
271 3 10.487 17.4019 7.32204
311 3 10.4567 15.8939 9.47629
323 3 9.12621 18.0974 9.46702
295 3 11.8265 18.2078 9.46007
87 2 11.259 16.1357 12.8271
7 1 11.2129 16.8419 12.1828
4 1 11.7833 16.4015 13.674
62 1 8.93825 15.7228 12.3368
151 3 14.5299 1.17512 3.0798
107 3 13.1391 1.77205 0.979951
127 3 15.9165 1.82984 0.969821
223 3 15.883 1.84166 5.22691
203 3 13.1509 1.89611 5.19964
247 3 14.5574 0.979446 7.29467
299 3 13.292 1.7159 9.47419
319 3 15.848 1.81652 9.43504
78 2 15.3169 1.14049 12.6822
24 1 14.8201 1.34028 11.8485
30 1 16.0757 0.570382 12.2214
111 3 14.44 4.21529 0.890528
155 3 15.8582 3.41034 3.03425
183 3 13.2302 3.52762 3.02488
187 3 14.5882 5.78856 3.0185
207 3 14.5318 4.23278 5.26342
283 3 14.4971 5.65788 7.28793
279 3 13.2805 3.34072 7.42616
251 3 15.9156 3.38928 7.40726
303 3 14.4641 4.08751 9.51493
46 1 13.0221 5.7804 12.3979
91 2 13.0136 4.22264 12.9392
55 1 13.2046 3.92145 12.0055
63 1 16.0504 3.24349 12.9888
2 1 12.1775 3.86383 13.2643
115 3 15.8417 6.528 0.96476
192 3 15.862 8.075 3.00293
168 3 13.2198 7.98983 3.02331
144 3 13.1487 6.52933 0.915822
124 3 14.502 8.91265 0.980771
211 3 15.9567 6.57389 5.16723
240 3 13.1324 6.40146 5.19074
220 3 14.5073 8.75411 5.16673
287 3 15.9047 8.11649 7.26799
264 3 13.2027 8.00989 7.29297
336 3 13.2468 6.47073 9.52282
307 3 15.8076 6.4543 9.36329
316 3 14.5123 8.78882 9.3801
77 2 12.9852 6.68022 11.8809
29 1 15.7924 7.86857 12.7141
10 1 14.2167 7.99029 12.3559
86 2 14.9659 8.59089 12.7091
128 3 15.9062 11.2568 0.888783
152 3 14.5115 10.4126 3.03125
108 3 13.2538 11.2239 0.939807
224 3 15.923 11.2426 5.10125
204 3 13.2614 11.2756 5.26415
248 3 14.5796 10.4168 7.36085
300 3 13.161 11.249 9.33863
320 3 15.8726 11.1328 9.43553
5 1 12.9455 9.66521 10.606
57 1 15.5427 9.86876 11.8798
79 2 15.9619 10.7513 11.6347
112 3 14.6186 13.5344 0.96312
156 3 15.8913 12.7546 3.02427
184 3 13.2501 12.729 3.10495
188 3 14.5585 15.0472 2.92377
208 3 14.566 13.5128 5.23734
280 3 13.1521 12.8057 7.31992
284 3 14.4678 15.1057 7.29863
252 3 15.8414 12.7487 7.34254
304 3 14.5195 13.4682 9.39431
6 1 13.5187 13.3189 11.8794
88 2 14.6027 13.4188 11.838
37 1 15.422 14.8762 12.167
39 1 14.8929 12.5194 11.7116
116 3 15.9519 15.8843 0.949028
191 3 15.8559 17.4229 3.02101
167 3 13.1964 17.4021 2.9248
143 3 13.1875 15.8536 0.920671
123 3 14.6612 18.2204 0.850273
212 3 15.9065 15.8673 5.13761
239 3 13.1859 15.8623 5.15841
219 3 14.5534 18.1476 5.16438
288 3 15.8718 17.3812 7.31139
263 3 13.1475 17.3808 7.42444
335 3 13.1041 15.9043 9.43042
308 3 15.9272 15.799 9.40751
315 3 14.4528 18.1548 9.4018
64 1 15.3176 16.4483 12.1207
61 1 13.3753 17.5861 12.1938
82 2 13.8906 17.4029 13.0198
72 2 15.9688 15.7774 11.8674
51 1 14.1508 18.2744 13.2066
