ITEM: TIMESTEP
120000000
ITEM: NUMBER OF ATOMS
336
ITEM: BOX BOUNDS pp pp pp
0.0000000000000000e+00 1.6167135238600000e+01
0.0000000000000000e+00 1.8668199539200000e+01
0.0000000000000000e+00 2.5747400283800001e+01
ITEM: ATOMS id type x y z
117 3 2.52053 1.92011 1.02371
145 3 3.72287 1.17363 3.17117
169 3 1.09703 1.09867 3.00838
213 3 2.41882 1.80754 5.19755
267 3 0.970631 1.02521 7.34475
241 3 3.78615 1.02292 7.39461
309 3 2.37309 1.84117 9.4177
35 1 3.09525 2.54791 11.4871
3 1 3.25327 0.37201 12.177
66 2 2.62723 2.35799 12.5955
60 1 3.96604 2.27601 13.5557
8 1 1.79522 3.01355 12.7048
101 3 3.66404 4.20401 0.967578
173 3 2.35165 3.45767 3.14583
129 3 1.08185 4.19481 0.930324
157 3 0.983041 5.75949 3.1007
177 3 3.80266 5.70744 3.05757
197 3 3.73333 4.22006 5.25713
225 3 0.925931 4.19751 5.21088
255 3 1.08499 5.75253 7.32558
273 3 3.77888 5.68806 7.35261
269 3 2.43254 3.37388 7.36205
321 3 0.993857 4.2011 9.51886
293 3 3.67773 4.08685 9.49632
56 1 0.867138 5.51244 12.638
21 1 0.0364619 3.91033 11.6592
71 2 0.27553 3.96841 12.5878
20 1 3.62957 5.59942 11.9054
63 1 0.0729231 3.1529 12.9405
1 1 3.28053 3.96026 16.7715
69 2 3.89203 4.28082 16.071
58 1 3.80865 5.21884 16.2873
133 3 2.40266 6.54768 0.998048
161 3 2.47879 7.97809 2.98794
137 3 3.74777 8.91078 1.00513
98 3 1.11609 8.90733 0.939053
229 3 2.42768 6.51178 5.20267
194 3 1.11023 8.93297 5.2164
233 3 3.8784 8.79428 5.24066
257 3 2.40752 8.03319 7.34845
325 3 2.47883 6.45404 9.34046
289 3 0.995074 8.69545 9.31379
329 3 3.73677 8.74095 9.54594
73 2 3.65145 6.36775 12.6604
11 1 0.984137 6.70299 11.6314
27 1 3.5215 8.18421 11.9114
80 2 1.00968 6.44478 12.5893
83 2 3.78505 9.14868 11.6142
42 1 2.668 6.29805 12.8977
118 3 2.45748 11.2309 1.01705
146 3 3.74544 10.4171 3.06817
170 3 1.01147 10.4416 3.0127
214 3 2.41389 11.2777 5.14901
268 3 1.02685 10.4267 7.25225
242 3 3.78519 10.3715 7.40158
310 3 2.35043 11.147 9.31689
16 1 0.684494 10.862 11.8139
85 2 2.35247 11.0839 11.5498
31 1 3.0812 10.2236 11.5436
17 1 3.05308 11.9217 11.7046
102 3 3.8055 13.5412 0.9426
174 3 2.37491 12.7917 3.03969
130 3 1.14723 13.6077 1.00621
178 3 3.77835 15.1363 3.01012
158 3 1.06985 15.1572 2.89217
198 3 3.80584 13.4982 5.28907
226 3 1.0707 13.5329 5.18196
270 3 2.38811 12.7498 7.30925
274 3 3.78041 15.0654 7.35392
256 3 1.05359 15.0275 7.34165
294 3 3.83981 13.4927 9.52117
322 3 0.984874 13.5189 9.27996
38 1 3.17907 14.3953 12.061
92 2 3.73655 13.4192 11.833
134 3 2.35865 15.974 0.958452
162 3 2.42545 17.5241 3.00985
97 3 1.1072 18.2507 0.850342
138 3 3.80029 18.2172 1.01461
230 3 2.43338 15.826 5.11504
193 3 1.11033 18.1739 5.12757
234 3 3.66656 18.1615 5.19785
258 3 2.40538 17.3752 7.38779
326 3 2.44925 15.81 9.35399
330 3 3.79592 18.173 9.40513
290 3 1.04003 18.0819 9.4369
36 1 2.61229 16.7008 11.9556
67 2 2.42588 15.6806 11.8855
94 2 3.7317 18.1973 11.9675
34 1 1.39832 15.7803 12.0039
114 3 7.6754 1.79966 0.951986
186 3 6.41076 1.08002 3.0826
141 3 5.19293 1.85069 0.994613
210 3 7.77306 1.87118 5.29773
237 3 5.09188 1.94841 5.27652
282 3 6.44361 1.00362 7.44553
333 3 5.07587 1.88196 9.39806
306 3 7.79059 1.86031 9.50816
44 1 6.6906 0.871205 12.994
47 1 7.14228 0.0182473 11.8177
50 1 4.70823 2.71288 14.691
90 2 4.79241 2.2167 13.9563
22 1 6.33282 2.93361 13.1503
121 3 6.45218 4.15372 0.849664
189 3 7.77433 3.43991 3.02913
165 3 5.11587 3.36201 3.13354
149 3 6.36535 5.80399 3.00757
217 3 6.45843 4.23002 5.17191
245 3 6.49063 5.73703 7.2865
261 3 5.1044 3.44369 7.31057
286 3 7.74128 3.39623 7.4544
313 3 6.42235 4.18925 9.43022
54 1 7.53229 5.79331 13.4746
95 2 7.32028 3.3603 12.8834
9 1 7.04506 3.17423 11.9161
153 3 7.76999 8.06537 2.97707
181 3 5.07942 8.09497 3.07341
105 3 5.23274 6.55104 0.780846
109 3 6.46383 8.87007 0.870033
125 3 7.79246 6.50894 0.853823
221 3 7.79262 6.45221 5.23003
201 3 5.0768 6.48141 5.15623
205 3 6.51953 8.84216 5.25231
249 3 7.86485 8.11589 7.35399
277 3 5.20211 8.06631 7.47019
297 3 5.12913 6.46259 9.45752
301 3 6.48516 8.79755 9.53052
317 3 7.80511 6.42761 9.35436
81 2 6.41338 8.76979 11.7973
48 1 6.41991 7.93978 12.2725
26 1 5.58819 9.24231 12.0297
96 2 7.6344 6.56564 12.9058
185 3 6.38933 10.3601 3.01883
142 3 5.10397 11.1721 1.10653
113 3 7.7932 11.2222 1.05036
209 3 7.80943 11.1921 5.2804
238 3 5.17855 11.192 5.25239
281 3 6.43641 10.4107 7.42648
334 3 5.21047 11.0856 9.51672
305 3 7.84798 11.1394 9.53664
33 1 7.21127 10.2726 12.1888
74 2 7.87083 11.1032 11.9663
122 3 6.47975 13.5206 0.986352
190 3 7.77291 12.6871 3.12198
166 3 5.07365 12.9094 3.11164
150 3 6.46511 15.0818 3.07824
218 3 6.53677 13.6089 5.32009
262 3 5.1137 12.7584 7.41887
285 3 7.8503 12.7014 7.46776
246 3 6.3974 15.0356 7.40712
314 3 6.45785 13.4832 9.47122
49 1 7.03746 14.1289 12.2836
93 2 6.40119 13.4138 11.9973
25 1 4.60425 13.5469 11.8159
12 1 6.89842 12.5193 12.1456
126 3 7.7993 15.8293 0.947079
154 3 7.80742 17.3834 3.0264
182 3 5.1424 17.4482 3.08199
106 3 5.03584 15.8557 0.912884
110 3 6.39272 18.2071 0.966207
222 3 7.86334 15.827 5.1934
202 3 5.12092 15.8229 5.21813
206 3 6.44967 18.1616 5.24307
250 3 7.81348 17.3292 7.32121
278 3 5.14617 17.365 7.34106
298 3 5.07997 15.9027 9.38679
318 3 7.80017 15.7949 9.56447
302 3 6.52139 18.2169 9.5114
14 1 7.28469 16.3439 12.4226
65 2 7.83801 15.6311 12.2331
59 1 4.71511 18.3684 12.2586
68 2 6.74192 18.5785 12.6953
135 3 10.4962 1.73766 1.01458
179 3 11.9021 0.959979 2.9941
159 3 9.17783 1.07408 3.05117
231 3 10.5491 1.82632 5.12146
275 3 11.7488 1.03302 7.28133
254 3 9.06455 1.05838 7.35826
327 3 10.445 1.74764 9.40698
19 1 9.67057 1.01067 11.7929
13 1 10.1647 2.54494 12.1294
89 2 10.3701 1.55858 11.7848
139 3 11.8818 4.21419 0.893108
163 3 10.489 3.30887 2.99912
100 3 9.00449 4.20707 1.00606
172 3 9.10521 5.70731 3.01685
148 3 11.8364 5.75106 3.02716
235 3 11.832 4.1523 5.16665
196 3 9.19696 4.16123 5.213
265 3 9.14112 5.75052 7.36053
244 3 11.8754 5.66329 7.3913
259 3 10.541 3.41312 7.39638
331 3 11.7928 4.12218 9.4318
291 3 9.06501 4.16408 9.44655
43 1 9.32685 3.87523 13.0453
75 2 10.1839 4.21095 12.6954
32 1 9.99939 4.41993 11.8702
2 1 12.078 4.00193 13.161
120 3 10.4229 6.49185 0.942196
176 3 10.4594 8.03293 3.0524
104 3 11.8806 8.82422 1.01199
132 3 9.22098 8.87637 0.929679
216 3 10.536 6.53633 5.19553
200 3 11.9405 8.8602 5.09336
228 3 9.10664 8.8591 5.16897
272 3 10.5405 8.08847 7.29205
312 3 10.4639 6.47822 9.40042
296 3 11.8778 8.814 9.47319
324 3 9.24857 8.80942 9.38705
70 2 10.4685 7.6216 12.3445
52 1 9.84034 7.43249 12.9941
23 1 10.0786 7.87565 11.4432
40 1 8.33223 6.29076 12.0939
41 1 12.0848 7.04004 11.9303
136 3 10.4268 11.2309 1.04048
180 3 11.9175 10.4257 3.03054
160 3 9.18642 10.3421 3.08226
232 3 10.5629 11.1557 5.22028
276 3 11.9063 10.4409 7.33272
253 3 9.2283 10.4156 7.37071
328 3 10.4864 11.0923 9.49642
28 1 8.7674 11.0571 12.3169
84 2 10.8057 11.2355 12.7987
45 1 11.5763 10.6332 12.8047
15 1 10.7221 11.3028 11.8948
140 3 11.8595 13.6225 1.04734
164 3 10.54 12.6201 3.09707
99 3 9.2093 13.49 0.992803
171 3 9.18768 15.0018 3.16779
147 3 11.88 15.0347 3.08209
236 3 11.8924 13.5693 5.14724
195 3 9.27697 13.4825 5.22723
266 3 9.19962 15.0728 7.47678
243 3 11.8181 15.0993 7.36701
260 3 10.5231 12.6918 7.4553
292 3 9.14929 13.5438 9.51106
332 3 11.7823 13.5363 9.4249
18 1 11.5456 14.503 11.9368
76 2 11.9013 13.6142 11.9509
53 1 11.3589 12.9033 12.366
119 3 10.5334 15.782 1.03775
175 3 10.51 17.3511 3.04667
131 3 8.97276 18.2076 1.04077
103 3 11.8904 18.138 0.893047
215 3 10.4951 15.9105 5.21766
227 3 9.09549 18.1992 5.25767
199 3 11.8705 18.1865 5.18559
271 3 10.4752 17.378 7.33539
311 3 10.4524 15.8674 9.51214
323 3 9.12018 18.0999 9.47235
295 3 11.8185 18.1951 9.44569
7 1 11.0513 16.5715 12.0878
87 2 11.2488 16.0473 12.8301
4 1 11.8431 16.4266 13.4456
62 1 8.74672 15.8092 12.133
151 3 14.4987 1.20691 3.08422
107 3 13.1452 1.75655 0.979745
127 3 15.8979 1.85181 0.949225
223 3 15.8972 1.85576 5.23314
203 3 13.1634 1.90769 5.17153
247 3 14.5488 1.01446 7.2828
299 3 13.3109 1.71851 9.44515
319 3 15.8638 1.82778 9.45839
78 2 15.3305 1.18033 12.7105
24 1 14.7529 1.34949 11.9912
30 1 15.8006 0.466377 12.2052
111 3 14.4202 4.20611 0.896662
155 3 15.8685 3.43041 3.0465
183 3 13.2429 3.49955 3.0032
187 3 14.5718 5.77911 2.9911
207 3 14.5578 4.24392 5.23806
283 3 14.4853 5.6482 7.30879
279 3 13.2744 3.35436 7.399
251 3 15.8896 3.3941 7.39771
303 3 14.4577 4.08244 9.51852
46 1 13.0552 5.93774 12.4435
91 2 13.0367 4.20026 12.9733
55 1 13.2168 3.43916 12.176
115 3 15.8547 6.54919 0.976648
192 3 15.9011 8.06424 3.00129
168 3 13.2254 8.01259 3.01585
144 3 13.1825 6.53958 0.9099
124 3 14.5113 8.91487 0.994867
211 3 15.9582 6.5424 5.16734
240 3 13.1452 6.42933 5.19099
220 3 14.5145 8.74767 5.17506
287 3 15.9203 8.12088 7.24637
264 3 13.2117 8.01523 7.29228
307 3 15.8192 6.45821 9.36868
316 3 14.534 8.80181 9.39003
336 3 13.2639 6.51168 9.52737
77 2 12.9857 6.67455 11.7941
10 1 14.1913 8.12876 12.3182
86 2 14.9494 8.59618 12.8048
29 1 15.6992 7.9995 12.8045
128 3 15.9076 11.2519 0.871292
152 3 14.532 10.4445 3.02264
108 3 13.2449 11.2103 0.972878
224 3 15.9447 11.2391 5.11296
204 3 13.2475 11.2691 5.25491
248 3 14.581 10.4174 7.32687
300 3 13.203 11.2461 9.34031
320 3 15.8421 11.1647 9.44205
5 1 12.9521 9.68927 10.5736
79 2 15.8478 10.7503 11.6592
57 1 15.4658 9.97427 12.1379
39 1 14.8602 12.2663 11.8434
112 3 14.6159 13.5652 0.982161
156 3 15.8774 12.7392 3.02204
184 3 13.2567 12.7645 3.09659
188 3 14.5711 15.065 2.91896
208 3 14.5417 13.5057 5.20835
280 3 13.1502 12.7818 7.34237
284 3 14.4872 15.1252 7.31292
252 3 15.8557 12.7661 7.29592
304 3 14.5388 13.4947 9.39445
88 2 14.5519 13.4192 11.8227
6 1 13.6401 13.2977 12.1082
37 1 15.4822 15.058 12.1469
116 3 15.9592 15.901 0.980032
191 3 15.8517 17.4168 3.06672
167 3 13.2219 17.397 2.93245
143 3 13.1675 15.8402 0.95029
123 3 14.6751 18.2185 0.837868
212 3 15.8918 15.8772 5.15621
239 3 13.2352 15.8835 5.12297
219 3 14.5543 18.1755 5.19024
288 3 15.8784 17.3982 7.29252
263 3 13.1343 17.3896 7.38258
308 3 15.914 15.7966 9.44001
335 3 13.0977 15.8903 9.46944
315 3 14.4732 18.1777 9.40496
64 1 15.3747 16.6419 12.1682
82 2 13.9342 17.424 12.9618
72 2 15.9485 15.8125 11.8619
61 1 13.3124 17.4714 12.1338
51 1 13.9126 18.2609 13.3851
