ITEM: TIMESTEP
120000000
ITEM: NUMBER OF ATOMS
336
ITEM: BOX BOUNDS pp pp pp
0.0000000000000000e+00 1.6167135238600000e+01
0.0000000000000000e+00 1.8668199539200000e+01
0.0000000000000000e+00 2.5747400283800001e+01
ITEM: ATOMS id type x y z
117 3 2.52205 1.93973 1.03729
145 3 3.73056 1.18766 3.16854
169 3 1.08338 1.10607 2.99765
213 3 2.40854 1.8202 5.21583
267 3 1.00304 1.04386 7.35453
241 3 3.79649 1.03386 7.36731
309 3 2.342 1.84954 9.41292
3 1 2.9703 0.198803 12.1885
35 1 2.91201 2.43116 11.6875
66 2 2.63521 2.35981 12.5983
8 1 1.69796 3.01004 12.4706
101 3 3.64523 4.21686 0.975804
173 3 2.36147 3.47161 3.16963
129 3 1.09615 4.18352 0.940318
157 3 0.992684 5.73826 3.10276
177 3 3.79772 5.723 3.0706
197 3 3.74064 4.25161 5.2647
225 3 0.941799 4.21548 5.22304
255 3 1.08522 5.75944 7.32271
273 3 3.80364 5.69529 7.34757
269 3 2.41083 3.3787 7.3823
321 3 0.993362 4.22032 9.52734
293 3 3.67283 4.09099 9.51257
71 2 0.268388 3.9759 12.5814
56 1 0.64647 5.49833 12.7763
20 1 3.70673 5.56656 12.0597
21 1 0.166176 3.94997 11.6551
42 1 2.60797 6.21389 12.9289
69 2 3.8161 4.32961 16.0878
1 1 3.23737 4.08614 16.8523
58 1 3.98563 5.31308 16.384
133 3 2.41054 6.52913 1.0004
161 3 2.49141 7.99188 2.99183
137 3 3.73216 8.91854 0.999457
98 3 1.07447 8.87817 0.927813
229 3 2.4173 6.51427 5.20522
194 3 1.12078 8.93728 5.23645
233 3 3.87111 8.77991 5.2313
257 3 2.43151 8.03774 7.33721
325 3 2.46002 6.44663 9.36083
329 3 3.74333 8.73249 9.54265
289 3 1.00698 8.71667 9.34063
73 2 3.64686 6.37999 12.7089
27 1 3.36634 8.26474 11.9577
11 1 0.953679 6.73545 11.6932
80 2 0.945322 6.47558 12.6412
83 2 3.80689 9.11722 11.6479
118 3 2.48533 11.2256 1.0207
146 3 3.74635 10.3926 3.0894
170 3 1.03184 10.4336 3.01951
214 3 2.41729 11.2776 5.15241
268 3 1.05032 10.4229 7.24754
242 3 3.7877 10.3577 7.41129
310 3 2.34373 11.1519 9.32107
16 1 0.682528 10.7846 12.0687
85 2 2.31829 11.0889 11.5874
31 1 2.9656 9.85311 11.6407
17 1 2.89903 11.9172 11.6886
174 3 2.38445 12.7996 3.06875
130 3 1.16176 13.5888 0.998555
158 3 1.05558 15.1641 2.89628
178 3 3.78185 15.1387 2.99926
102 3 3.83071 13.5648 0.928049
198 3 3.78993 13.4842 5.29496
226 3 1.08612 13.5296 5.14031
270 3 2.36702 12.7459 7.30511
274 3 3.79478 15.0706 7.35183
256 3 1.03542 15.0474 7.31894
322 3 1.01973 13.4959 9.28746
294 3 3.81971 13.4708 9.51221
38 1 3.38296 14.3692 11.9375
92 2 3.75344 13.4271 11.7609
134 3 2.36502 15.9871 0.955701
162 3 2.46612 17.5383 2.99273
97 3 1.09396 18.2558 0.832854
138 3 3.80918 18.1997 1.02554
230 3 2.43729 15.8241 5.1078
234 3 3.70234 18.1683 5.19507
193 3 1.10012 18.1717 5.15381
258 3 2.39519 17.3842 7.38085
326 3 2.43283 15.7819 9.37942
290 3 1.0232 18.0912 9.43286
330 3 3.79721 18.1574 9.42159
36 1 2.88311 16.5695 11.9858
94 2 3.76994 18.1534 11.954
67 2 2.45312 15.6906 11.8863
34 1 1.41878 15.7348 12.1485
114 3 7.68253 1.80411 0.957517
186 3 6.42128 1.07924 3.08992
141 3 5.16153 1.85342 0.992843
210 3 7.77595 1.87779 5.28667
237 3 5.07877 1.9402 5.28436
282 3 6.42721 1.00177 7.45158
333 3 5.06719 1.87629 9.39447
306 3 7.79985 1.85092 9.50263
44 1 6.94208 0.893222 12.9908
90 2 4.80946 2.23847 13.9813
50 1 4.63247 2.76444 14.6723
22 1 6.46962 3.04577 13.0631
60 1 4.05915 2.2792 13.3238
47 1 7.15811 0.0116665 11.7753
121 3 6.45012 4.16074 0.849452
189 3 7.79957 3.44713 3.03204
165 3 5.13193 3.3436 3.12228
149 3 6.3615 5.80421 3.01858
217 3 6.46737 4.22412 5.18522
261 3 5.10659 3.45008 7.32397
245 3 6.4671 5.7105 7.30353
286 3 7.74055 3.37924 7.43378
313 3 6.42017 4.20141 9.4444
9 1 7.23453 3.15549 11.973
95 2 7.34898 3.34746 12.8921
54 1 7.54585 5.688 13.4074
125 3 7.79666 6.48962 0.85119
153 3 7.78383 8.07467 2.97001
181 3 5.1078 8.10446 3.07172
105 3 5.24466 6.56897 0.79411
109 3 6.47061 8.85128 0.886696
221 3 7.7944 6.44558 5.21437
201 3 5.09869 6.48011 5.14852
205 3 6.51646 8.83109 5.2603
249 3 7.86753 8.11606 7.33398
277 3 5.18838 8.06796 7.46915
297 3 5.13538 6.44528 9.4737
317 3 7.83506 6.44309 9.35623
301 3 6.46348 8.80768 9.56138
48 1 6.61502 7.98571 12.3937
96 2 7.64589 6.52511 12.9398
81 2 6.29459 8.8012 11.8064
185 3 6.39842 10.352 3.01825
142 3 5.12639 11.1732 1.08986
113 3 7.78416 11.2438 1.01973
209 3 7.79458 11.1726 5.28542
238 3 5.17078 11.2123 5.27428
281 3 6.44861 10.3973 7.40065
334 3 5.22287 11.1068 9.52046
305 3 7.87256 11.1092 9.50381
33 1 7.28276 10.2028 12.1319
74 2 7.89656 11.0858 11.9509
26 1 5.41809 9.34704 11.9931
122 3 6.4578 13.5383 0.991425
190 3 7.75787 12.6654 3.11712
166 3 5.08773 12.8624 3.11168
150 3 6.42427 15.0759 3.06352
218 3 6.5326 13.5991 5.31575
285 3 7.84236 12.7036 7.46963
262 3 5.10628 12.7663 7.4326
246 3 6.42067 15.0532 7.41834
314 3 6.43217 13.4758 9.46501
25 1 4.78332 13.4082 12.0548
93 2 6.44203 13.4058 11.9611
49 1 7.18882 14.1484 11.8951
12 1 6.85239 12.4983 12.1823
126 3 7.79326 15.8245 0.955327
154 3 7.8015 17.3734 2.98985
182 3 5.17071 17.4485 3.05453
106 3 5.05237 15.8779 0.929392
110 3 6.36279 18.2024 0.950652
222 3 7.84895 15.8497 5.18572
202 3 5.13908 15.836 5.21174
206 3 6.45732 18.1578 5.21832
250 3 7.8094 17.345 7.34302
278 3 5.1298 17.3491 7.33553
298 3 5.10117 15.891 9.40136
318 3 7.79687 15.7921 9.56347
302 3 6.54467 18.2246 9.51478
14 1 7.29503 16.3872 12.5303
68 2 6.71881 18.5617 12.6451
59 1 4.67676 18.4527 12.1072
65 2 7.86279 15.6501 12.2402
135 3 10.4885 1.73519 1.00794
179 3 11.9291 0.964428 2.97439
159 3 9.17023 1.08727 3.03175
231 3 10.5575 1.79719 5.11213
275 3 11.7507 1.03258 7.27042
254 3 9.04735 1.0553 7.35412
327 3 10.4192 1.75088 9.4183
19 1 9.52428 1.03003 12.0249
13 1 10.1654 2.67762 12.0032
89 2 10.3511 1.63189 11.7619
139 3 11.8785 4.21557 0.891553
163 3 10.4921 3.29424 2.98522
100 3 8.99992 4.2011 1.02693
172 3 9.1068 5.73743 3.02378
148 3 11.8399 5.74713 3.00082
235 3 11.8109 4.16405 5.2152
196 3 9.18789 4.15708 5.22466
244 3 11.9185 5.65633 7.391
265 3 9.12687 5.72689 7.36972
259 3 10.5555 3.40394 7.39196
291 3 9.07427 4.15892 9.46497
331 3 11.7828 4.11522 9.41197
43 1 9.23508 4.06012 12.9986
75 2 10.1734 4.17849 12.7335
32 1 9.96977 4.55041 11.8707
2 1 12.0431 4.03382 13.162
120 3 10.4117 6.51822 0.948513
176 3 10.457 8.0591 3.06484
132 3 9.22983 8.86272 0.943819
104 3 11.8953 8.86687 1.01071
228 3 9.11054 8.85241 5.17465
216 3 10.5239 6.52212 5.18734
200 3 11.9481 8.87411 5.10176
272 3 10.5451 8.08125 7.29146
312 3 10.4848 6.47273 9.38629
296 3 11.8929 8.81712 9.44749
324 3 9.24755 8.81272 9.38719
70 2 10.4154 7.61658 12.3228
52 1 9.92013 7.66267 13.186
23 1 9.82687 7.90716 11.4518
41 1 11.9909 6.75975 11.9301
40 1 8.28231 6.46151 12.1419
136 3 10.4373 11.2052 1.01803
180 3 11.8971 10.4465 3.04146
160 3 9.17493 10.3413 3.071
232 3 10.5384 11.1565 5.21461
253 3 9.22387 10.4026 7.38634
276 3 11.9238 10.4227 7.36124
328 3 10.504 11.0938 9.47733
28 1 8.71368 11.0075 12.3473
45 1 11.6459 10.6913 12.9553
84 2 10.7886 11.2652 12.7676
15 1 10.6558 11.3435 11.7366
140 3 11.8635 13.618 1.03201
164 3 10.5464 12.65 3.09685
99 3 9.19426 13.4825 0.994376
171 3 9.18281 15.0021 3.16804
147 3 11.882 15.0565 3.0794
236 3 11.9307 13.5669 5.16103
195 3 9.26365 13.503 5.26669
260 3 10.507 12.6756 7.46427
266 3 9.20096 15.0781 7.44931
243 3 11.793 15.0809 7.37658
292 3 9.17541 13.5346 9.49117
332 3 11.8387 13.5408 9.43025
53 1 11.496 12.8578 12.425
18 1 11.6663 14.4683 12.2957
76 2 11.9086 13.6103 11.9188
119 3 10.5436 15.7711 1.04246
175 3 10.5394 17.3436 3.01561
131 3 8.97522 18.2202 1.05027
103 3 11.8679 18.1448 0.889144
215 3 10.4869 15.9357 5.2253
227 3 9.10855 18.2005 5.25617
199 3 11.8752 18.1829 5.17015
271 3 10.4724 17.4084 7.33967
311 3 10.4427 15.8827 9.49751
323 3 9.14214 18.0934 9.48297
295 3 11.8169 18.2119 9.46123
7 1 11.2186 16.6923 12.0305
87 2 11.2367 16.1099 12.7798
4 1 11.8208 16.5626 13.5054
62 1 9.01684 15.558 12.2539
151 3 14.4937 1.18411 3.07181
107 3 13.1362 1.7762 0.965691
127 3 15.9123 1.84218 0.979753
223 3 15.8723 1.84389 5.23127
203 3 13.1671 1.8936 5.19029
247 3 14.5559 0.9935 7.27163
319 3 15.8489 1.83031 9.4522
299 3 13.2983 1.6934 9.45975
78 2 15.3219 1.10533 12.6763
24 1 14.8066 1.49843 11.8437
30 1 15.99 0.305992 12.3315
111 3 14.4284 4.19531 0.889127
155 3 15.8507 3.43458 3.02008
183 3 13.2384 3.50698 3.01052
187 3 14.5643 5.78277 2.98583
207 3 14.53 4.22737 5.21577
283 3 14.5116 5.66327 7.31947
279 3 13.2669 3.34942 7.39108
251 3 15.9093 3.41539 7.39205
303 3 14.4673 4.0799 9.52009
46 1 12.989 5.91534 12.4274
91 2 13.0101 4.19794 13.0181
55 1 13.2532 3.61787 12.2762
63 1 15.8394 3.18827 13.1695
115 3 15.8466 6.54854 0.961625
192 3 15.8879 8.08581 3.00008
168 3 13.2282 8.00615 2.99685
144 3 13.1558 6.54028 0.918467
124 3 14.5144 8.91644 0.982419
211 3 15.9548 6.5622 5.17482
240 3 13.1615 6.41185 5.18686
220 3 14.517 8.73704 5.18443
287 3 15.92 8.11966 7.24261
264 3 13.2261 8.02104 7.29048
307 3 15.811 6.47735 9.38251
336 3 13.2623 6.46781 9.52605
316 3 14.5236 8.78052 9.39
86 2 14.9266 8.58416 12.6627
29 1 15.8038 8.20377 12.6854
10 1 14.0538 8.23689 12.3376
77 2 12.9809 6.64008 11.8352
128 3 15.898 11.2405 0.885456
152 3 14.5177 10.4335 3.02435
108 3 13.2311 11.2093 0.946728
224 3 15.9488 11.2631 5.11757
204 3 13.2567 11.26 5.27625
248 3 14.5739 10.4178 7.34997
320 3 15.8588 11.1686 9.45487
300 3 13.1826 11.254 9.35437
5 1 13.0125 9.58769 10.4067
79 2 15.8491 10.7224 11.6055
57 1 15.3986 9.93745 11.9321
112 3 14.6225 13.5418 0.981968
156 3 15.8817 12.7544 3.01549
184 3 13.2555 12.7421 3.10527
188 3 14.5631 15.0752 2.92351
208 3 14.5755 13.5134 5.21571
280 3 13.1601 12.7692 7.28916
284 3 14.482 15.1282 7.2942
252 3 15.841 12.7647 7.33424
304 3 14.5288 13.4612 9.38543
6 1 13.4329 13.3117 12.1242
88 2 14.5506 13.4173 11.8765
37 1 15.4935 14.8948 12.1847
39 1 14.8479 12.4968 11.8839
116 3 15.9757 15.8885 0.947226
191 3 15.851 17.4209 3.05367
167 3 13.1901 17.3803 2.91376
143 3 13.1648 15.8543 0.943269
123 3 14.664 18.2321 0.835639
212 3 15.897 15.857 5.12231
239 3 13.2259 15.8853 5.11966
219 3 14.5391 18.1781 5.16434
288 3 15.8819 17.394 7.31055
263 3 13.1112 17.3961 7.4114
308 3 15.9134 15.7808 9.45153
335 3 13.1163 15.9097 9.44966
315 3 14.4656 18.1589 9.4012
82 2 13.939 17.4725 12.9341
64 1 15.5101 16.5029 12.1282
61 1 13.1662 17.6228 12.2232
72 2 15.9824 15.7235 11.8728
51 1 13.9192 18.3728 13.2642
