ITEM: TIMESTEP
120000000
ITEM: NUMBER OF ATOMS
336
ITEM: BOX BOUNDS pp pp pp
0.0000000000000000e+00 1.6167135238600000e+01
0.0000000000000000e+00 1.8668199539200000e+01
0.0000000000000000e+00 2.5747400283800001e+01
ITEM: ATOMS id type x y z
117 3 2.49296 1.9259 1.00426
145 3 3.73272 1.20403 3.18483
169 3 1.09333 1.09707 2.9895
213 3 2.4169 1.8015 5.19537
241 3 3.76539 1.04606 7.4026
267 3 0.957705 1.03912 7.3673
309 3 2.35184 1.83674 9.42298
35 1 2.91422 2.30928 11.6146
3 1 3.08496 0.404686 12.0465
66 2 2.57762 2.37764 12.6015
8 1 1.80495 2.99476 12.6609
101 3 3.65893 4.18232 0.967353
173 3 2.35388 3.47004 3.11822
129 3 1.07291 4.18669 0.932356
157 3 0.991645 5.74785 3.10872
177 3 3.80458 5.7054 3.04426
197 3 3.73059 4.23394 5.25333
225 3 0.944659 4.20976 5.23424
269 3 2.42593 3.39464 7.35485
255 3 1.1059 5.76066 7.34388
273 3 3.77481 5.6917 7.33206
321 3 0.994511 4.21598 9.54593
293 3 3.67894 4.09625 9.51723
56 1 0.803825 5.41104 12.8024
20 1 3.74582 5.90968 11.7498
63 1 0.00909533 3.12081 13.007
71 2 0.281151 3.94735 12.5981
1 1 3.12687 3.92394 16.7637
69 2 3.81926 4.23472 16.0869
58 1 3.85415 5.23861 16.0811
133 3 2.37825 6.55604 0.993117
161 3 2.4843 7.98483 2.9952
137 3 3.73669 8.89633 1.01846
98 3 1.11583 8.88725 0.952176
233 3 3.8853 8.78798 5.27624
194 3 1.11609 8.93138 5.22874
229 3 2.41218 6.51327 5.19305
257 3 2.40504 8.0304 7.36389
325 3 2.49131 6.45628 9.35159
289 3 1.00275 8.69773 9.30935
329 3 3.75657 8.74896 9.54077
80 2 1.00707 6.49573 12.6593
11 1 0.866047 6.62897 11.5831
83 2 3.82828 9.17454 11.6113
27 1 3.33788 8.28399 11.972
73 2 3.71917 6.36347 12.6466
42 1 2.85452 6.42092 13.1367
118 3 2.47103 11.2267 1.04146
146 3 3.74559 10.4121 3.07155
170 3 1.02174 10.461 3.01021
214 3 2.40463 11.2847 5.13032
268 3 1.03238 10.4156 7.26493
242 3 3.80496 10.3529 7.4105
310 3 2.347 11.1327 9.31508
85 2 2.38783 11.0732 11.5481
16 1 0.774559 10.6807 11.9312
31 1 3.11337 10.1197 11.6986
17 1 3.16753 11.8075 11.7427
102 3 3.80431 13.5493 0.942781
174 3 2.36822 12.8019 3.06689
130 3 1.12829 13.5881 1.01035
178 3 3.76829 15.1408 3.02515
158 3 1.05684 15.1556 2.90874
198 3 3.78757 13.5051 5.29742
226 3 1.07985 13.5275 5.18652
270 3 2.39047 12.7476 7.31669
274 3 3.79057 15.0695 7.34674
256 3 1.05552 15.0358 7.3386
294 3 3.82542 13.4861 9.50596
322 3 0.983508 13.5188 9.2692
38 1 3.32054 14.311 11.9132
92 2 3.74868 13.4238 11.8171
134 3 2.35532 15.9853 0.969278
162 3 2.43117 17.5393 3.02755
97 3 1.0969 18.2375 0.840369
138 3 3.7931 18.2274 1.01087
230 3 2.40221 15.8309 5.11564
234 3 3.68809 18.1804 5.18753
193 3 1.10218 18.1756 5.13542
258 3 2.40985 17.3511 7.39326
326 3 2.45313 15.8148 9.36209
290 3 1.0176 18.0791 9.43024
330 3 3.80403 18.1744 9.40758
36 1 2.64701 16.5909 11.9786
67 2 2.4321 15.6886 11.8317
94 2 3.73576 18.2079 11.9521
34 1 1.397 15.6423 12.0855
114 3 7.67248 1.82398 0.95976
186 3 6.42144 1.10355 3.09121
141 3 5.20639 1.8523 0.983536
210 3 7.7525 1.8654 5.31304
237 3 5.08886 1.94286 5.29179
282 3 6.44035 1.01234 7.4591
333 3 5.06483 1.88279 9.38518
306 3 7.7932 1.84505 9.47874
44 1 6.56235 0.839354 13.1843
47 1 7.1083 0.137367 11.7899
50 1 4.6058 3.04594 14.6699
90 2 4.78809 2.21552 13.9673
22 1 6.39278 3.05333 13.0813
60 1 4.05863 2.1478 13.4002
9 1 7.19065 3.02745 11.9088
121 3 6.46926 4.15527 0.867908
189 3 7.75607 3.44234 3.01218
165 3 5.11379 3.35044 3.13552
149 3 6.39335 5.79588 3.02691
217 3 6.47374 4.2213 5.17441
245 3 6.4874 5.72201 7.29494
261 3 5.12633 3.4589 7.33857
286 3 7.76501 3.38481 7.46021
313 3 6.39701 4.19226 9.39781
54 1 7.60392 5.72999 13.3148
95 2 7.29434 3.35982 12.8795
153 3 7.78475 8.06925 2.99057
181 3 5.08347 8.09126 3.07641
105 3 5.24082 6.56583 0.799133
109 3 6.48272 8.84871 0.89273
125 3 7.78485 6.50104 0.863523
221 3 7.78868 6.45604 5.22627
201 3 5.09684 6.48025 5.16217
205 3 6.51081 8.84982 5.26476
277 3 5.22789 8.08928 7.47371
249 3 7.86083 8.10597 7.37319
297 3 5.14414 6.47686 9.43752
317 3 7.81099 6.43057 9.37126
301 3 6.46773 8.82472 9.53308
96 2 7.66065 6.49473 12.9182
48 1 6.35057 7.97523 12.3839
81 2 6.41413 8.76915 11.8542
26 1 5.46752 9.10772 12.1098
185 3 6.42727 10.347 3.00938
142 3 5.08652 11.1749 1.10169
113 3 7.77707 11.2166 1.07089
209 3 7.79991 11.1848 5.26982
238 3 5.20214 11.2044 5.26701
281 3 6.42491 10.4186 7.41897
334 3 5.23063 11.074 9.5085
305 3 7.82909 11.1319 9.54894
33 1 7.24384 10.3362 12.0852
74 2 7.88177 11.0694 11.9295
122 3 6.49763 13.5372 0.999074
190 3 7.79896 12.6661 3.10715
166 3 5.05985 12.8832 3.10783
150 3 6.45398 15.0824 3.07617
218 3 6.5431 13.6305 5.3131
262 3 5.12634 12.7595 7.44145
285 3 7.83589 12.6871 7.44663
246 3 6.42703 15.033 7.40252
314 3 6.44455 13.4916 9.48823
93 2 6.44362 13.4041 11.9463
49 1 7.116 14.3224 12.0782
25 1 4.67405 13.3456 11.9477
12 1 7.00386 12.5823 11.9691
126 3 7.77935 15.8323 0.952492
154 3 7.82494 17.38 3.03021
182 3 5.1352 17.4406 3.07724
106 3 5.04956 15.8592 0.908838
110 3 6.39006 18.1891 0.959183
222 3 7.86315 15.8318 5.2108
202 3 5.10489 15.8113 5.24714
206 3 6.45162 18.1753 5.22605
250 3 7.81644 17.3429 7.34217
278 3 5.13207 17.3852 7.3385
318 3 7.80263 15.8041 9.56737
298 3 5.06224 15.8912 9.37221
302 3 6.51173 18.2307 9.53173
14 1 7.26341 16.3261 12.2984
65 2 7.83327 15.6365 12.2247
59 1 4.75623 18.5805 12.0731
68 2 6.76489 18.5922 12.6549
135 3 10.4822 1.74651 1.0004
179 3 11.9067 0.97179 2.99665
159 3 9.1804 1.08417 3.05619
231 3 10.5453 1.83388 5.13602
275 3 11.7488 1.02256 7.27963
254 3 9.06586 1.05146 7.34547
327 3 10.4258 1.76629 9.3994
89 2 10.3402 1.5476 11.781
13 1 10.3912 2.38944 12.2447
19 1 9.53839 1.01438 11.891
139 3 11.8756 4.23224 0.86725
163 3 10.489 3.32399 3.00536
100 3 9.00602 4.20739 1.0104
172 3 9.11509 5.71939 3.00364
148 3 11.8177 5.75207 3.00696
235 3 11.8147 4.15731 5.16017
196 3 9.19992 4.15198 5.20595
244 3 11.8759 5.65286 7.41134
265 3 9.12239 5.72621 7.38081
259 3 10.556 3.39425 7.39876
291 3 9.05012 4.17742 9.4473
331 3 11.7866 4.11286 9.43402
43 1 9.38329 3.92282 13.157
75 2 10.1337 4.18595 12.6779
32 1 9.88516 4.31912 11.7905
120 3 10.4275 6.49511 0.944614
176 3 10.4485 8.03336 3.03859
104 3 11.8752 8.84869 1.00201
132 3 9.23379 8.88242 0.915973
228 3 9.0966 8.85594 5.16334
216 3 10.5221 6.50702 5.20396
200 3 11.9171 8.85451 5.08794
272 3 10.5419 8.1032 7.27926
312 3 10.479 6.47453 9.409
296 3 11.8924 8.82558 9.47911
324 3 9.25619 8.80974 9.41012
52 1 9.83928 7.2814 12.8489
70 2 10.4567 7.60207 12.2789
23 1 9.94533 7.97636 11.6466
40 1 8.20926 6.37279 11.9563
136 3 10.4196 11.2289 1.05141
180 3 11.909 10.4367 3.03961
160 3 9.15762 10.3481 3.08487
232 3 10.5474 11.1633 5.20979
276 3 11.8948 10.431 7.33196
253 3 9.22233 10.4163 7.3588
328 3 10.4989 11.0993 9.4791
28 1 8.9363 11.1926 12.3327
84 2 10.7722 11.2182 12.7494
45 1 11.5621 10.6317 12.961
15 1 10.9234 11.2932 11.7445
140 3 11.836 13.6254 1.05014
164 3 10.5406 12.6388 3.0979
99 3 9.22419 13.5005 1.00889
147 3 11.8788 15.0547 3.07969
171 3 9.19032 14.9859 3.16574
236 3 11.8637 13.5698 5.15546
195 3 9.29256 13.5042 5.23999
266 3 9.18872 15.0565 7.46074
243 3 11.8205 15.1027 7.37528
260 3 10.5182 12.7048 7.45592
332 3 11.7853 13.5453 9.442
292 3 9.14192 13.5328 9.50588
53 1 11.3317 12.9155 12.4052
18 1 11.5835 14.5539 12.0154
76 2 11.8883 13.6283 11.9343
119 3 10.5443 15.7776 1.03681
175 3 10.5354 17.3608 3.04406
131 3 8.96094 18.2249 1.03513
103 3 11.8994 18.1549 0.894095
215 3 10.5105 15.8999 5.23374
199 3 11.8652 18.1714 5.18244
227 3 9.08683 18.1844 5.25202
271 3 10.4924 17.3833 7.3387
311 3 10.4409 15.857 9.5154
323 3 9.1355 18.0791 9.47111
295 3 11.8267 18.1986 9.43433
87 2 11.2595 16.0385 12.8085
7 1 11.2189 16.6085 11.8857
4 1 11.7936 16.3134 13.4931
62 1 8.76555 15.7582 12.2404
151 3 14.5072 1.19881 3.10783
107 3 13.1581 1.75753 0.973655
127 3 15.8879 1.85593 0.957656
223 3 15.8945 1.85587 5.24339
203 3 13.1679 1.90293 5.1817
247 3 14.5532 1.02555 7.30819
299 3 13.3066 1.70998 9.47817
319 3 15.8767 1.82943 9.45385
78 2 15.3361 1.18497 12.6915
24 1 14.6604 1.41371 12.0321
30 1 15.9295 0.617044 12.2428
111 3 14.4394 4.21207 0.916604
155 3 15.8675 3.43181 3.0312
183 3 13.2479 3.49785 3.02293
187 3 14.5609 5.77645 2.99096
207 3 14.562 4.24744 5.24984
283 3 14.4978 5.64869 7.29216
279 3 13.271 3.33651 7.39266
251 3 15.9134 3.38511 7.39513
303 3 14.4838 4.07983 9.51641
46 1 13.1835 5.95138 12.4114
91 2 13.0016 4.27084 12.9714
55 1 13.1489 3.7535 12.1125
21 1 16.008 3.97485 11.6395
2 1 12.1392 4.00353 13.0163
115 3 15.8508 6.56472 0.971423
192 3 15.8876 8.08558 2.99441
168 3 13.2356 8.00857 3.01415
144 3 13.198 6.55216 0.915354
124 3 14.5334 8.91581 0.980818
211 3 15.9452 6.56784 5.16755
240 3 13.1453 6.42366 5.16811
220 3 14.4986 8.75014 5.18581
287 3 15.9278 8.12782 7.25418
264 3 13.2077 8.03154 7.29945
307 3 15.8262 6.45365 9.36427
316 3 14.5358 8.79277 9.3886
336 3 13.2575 6.50701 9.50861
77 2 13.0128 6.67191 11.796
86 2 14.9215 8.61855 12.7612
10 1 14.2117 7.99066 12.3553
29 1 15.6593 7.95106 12.714
41 1 12.1287 6.87087 12.0348
128 3 15.9266 11.2621 0.890869
152 3 14.52 10.4314 3.01966
108 3 13.268 11.2109 0.976407
224 3 15.9515 11.2296 5.10119
204 3 13.2629 11.2565 5.25198
248 3 14.5712 10.4317 7.36449
320 3 15.8465 11.1602 9.43471
300 3 13.1943 11.2363 9.35952
5 1 12.9825 9.72602 10.7767
79 2 15.8693 10.7178 11.6121
57 1 15.3486 9.89494 12.0397
112 3 14.6254 13.5404 0.980454
156 3 15.8748 12.7539 3.01768
184 3 13.2541 12.7596 3.08741
188 3 14.5614 15.0696 2.93104
208 3 14.5641 13.4979 5.2287
280 3 13.1651 12.7714 7.32322
252 3 15.841 12.7635 7.29099
284 3 14.4815 15.1079 7.2853
304 3 14.5394 13.5022 9.3915
88 2 14.5599 13.3282 11.8685
6 1 13.6396 13.2027 12.1982
37 1 15.5339 15.0447 12.0846
39 1 15.1096 12.5871 11.8402
116 3 15.9576 15.895 0.968919
191 3 15.842 17.4184 3.06669
167 3 13.2237 17.3786 2.905
143 3 13.1885 15.8524 0.949569
123 3 14.6594 18.2334 0.828198
239 3 13.2274 15.9086 5.13396
212 3 15.8825 15.8792 5.16014
219 3 14.5654 18.164 5.18282
288 3 15.8864 17.4043 7.28937
263 3 13.1661 17.3929 7.39882
308 3 15.9199 15.8049 9.43408
335 3 13.094 15.9024 9.4505
315 3 14.4511 18.1769 9.39961
82 2 13.9102 17.4049 13.0184
64 1 15.4459 16.6734 12.2614
61 1 13.3986 17.461 12.1325
72 2 15.962 15.8352 11.8874
51 1 14.0097 18.3704 13.3941
