ITEM: TIMESTEP
120000000
ITEM: NUMBER OF ATOMS
336
ITEM: BOX BOUNDS pp pp pp
0.0000000000000000e+00 1.6167135238600000e+01
0.0000000000000000e+00 1.8668199539200000e+01
0.0000000000000000e+00 2.5747400283800001e+01
ITEM: ATOMS id type x y z
117 3 2.51596 1.92951 1.05755
145 3 3.72363 1.17341 3.14006
169 3 1.08036 1.11853 2.98745
213 3 2.43715 1.78672 5.22237
241 3 3.78685 1.05589 7.37495
267 3 0.978999 1.0511 7.3681
309 3 2.34428 1.84785 9.42308
35 1 2.73343 2.65491 11.5523
66 2 2.65643 2.39665 12.6351
3 1 3.06837 0.302696 12.3737
8 1 1.83693 2.93725 12.6133
101 3 3.66052 4.20277 0.972716
173 3 2.35279 3.45384 3.13621
129 3 1.11322 4.18414 0.931581
157 3 0.990382 5.7469 3.08015
177 3 3.79029 5.71479 3.09025
197 3 3.72817 4.2551 5.25165
225 3 0.943668 4.19102 5.23993
255 3 1.07014 5.77296 7.31399
273 3 3.80581 5.69171 7.32778
269 3 2.41201 3.37375 7.36957
321 3 1.0131 4.22272 9.54458
293 3 3.67602 4.108 9.50958
21 1 0.078644 3.93829 11.7242
20 1 3.41472 5.70405 11.8114
71 2 0.255341 3.92093 12.6306
56 1 0.630902 5.52834 12.8519
1 1 3.12986 4.27435 16.8737
69 2 3.79814 4.26562 16.1105
133 3 2.37699 6.51324 0.972567
161 3 2.50493 7.98259 2.97819
137 3 3.72342 8.9175 1.00132
98 3 1.11033 8.88663 0.93603
229 3 2.43197 6.52058 5.18444
233 3 3.89358 8.78074 5.24343
194 3 1.11975 8.92746 5.25561
257 3 2.42534 8.04758 7.33069
325 3 2.47605 6.45712 9.3715
289 3 0.994226 8.72621 9.35362
329 3 3.74242 8.75171 9.53401
27 1 3.55266 8.13599 12.1686
80 2 0.920515 6.45524 12.6584
11 1 0.855066 6.60528 11.7979
83 2 3.82804 9.14112 11.6228
73 2 3.63866 6.33402 12.6682
42 1 2.75123 6.37864 12.8994
118 3 2.47147 11.2324 1.05025
146 3 3.74084 10.3953 3.10119
170 3 1.01362 10.4387 3.00657
214 3 2.43439 11.2673 5.13684
268 3 1.0501 10.4187 7.2672
242 3 3.82051 10.3601 7.42615
310 3 2.35934 11.1463 9.33793
16 1 0.629654 10.7419 11.935
85 2 2.30559 11.0662 11.5833
31 1 3.06032 10.0977 11.7874
17 1 2.84267 11.9421 11.5355
174 3 2.38151 12.7926 3.06099
130 3 1.15108 13.5902 1.00627
178 3 3.75942 15.1351 2.98793
158 3 1.04896 15.1586 2.90092
102 3 3.82494 13.5802 0.95051
198 3 3.78 13.5068 5.29585
226 3 1.09793 13.5304 5.13464
270 3 2.37803 12.7308 7.29603
274 3 3.77007 15.0651 7.34994
256 3 1.02194 15.0278 7.34125
294 3 3.8263 13.4863 9.49709
322 3 1.02231 13.4953 9.2833
38 1 3.49171 14.4786 11.9335
92 2 3.76361 13.4317 11.799
134 3 2.3637 15.9905 0.952979
162 3 2.45338 17.5437 3.00092
97 3 1.09903 18.2369 0.833091
138 3 3.80827 18.2112 1.01446
230 3 2.42791 15.8223 5.09748
193 3 1.11832 18.1748 5.14587
234 3 3.68209 18.1728 5.19429
258 3 2.40948 17.3848 7.38233
326 3 2.42333 15.7641 9.3961
290 3 1.02291 18.0766 9.4384
330 3 3.82453 18.1503 9.41604
36 1 2.78138 16.7342 11.9245
67 2 2.44529 15.7373 11.834
94 2 3.72293 18.1907 11.9259
34 1 1.4198 15.7182 12.1878
114 3 7.64923 1.8022 0.943322
186 3 6.40141 1.07182 3.07391
141 3 5.16197 1.88268 0.983798
210 3 7.76845 1.87316 5.29039
237 3 5.07813 1.93403 5.29111
282 3 6.45204 1.00422 7.44649
333 3 5.06761 1.88275 9.38847
306 3 7.78047 1.83949 9.50094
47 1 7.26387 0.0506973 11.8569
44 1 6.59981 0.861418 12.9181
50 1 4.57743 3.07038 14.5783
90 2 4.78615 2.2796 13.9647
22 1 6.50824 2.9995 13.1353
60 1 4.09031 2.38556 13.2842
121 3 6.4582 4.16021 0.860748
189 3 7.79166 3.45108 3.02829
165 3 5.10334 3.35384 3.11993
149 3 6.34445 5.77995 3.02319
217 3 6.47513 4.225 5.17547
261 3 5.11075 3.46024 7.31295
245 3 6.4434 5.70258 7.29406
286 3 7.74949 3.37744 7.43513
313 3 6.42576 4.22481 9.4777
9 1 7.14943 3.2685 11.9538
95 2 7.36254 3.32097 12.881
54 1 7.62708 5.51197 13.2554
58 1 4.06358 5.22349 16.284
125 3 7.78571 6.49207 0.867314
153 3 7.77637 8.08172 2.96116
181 3 5.10632 8.08243 3.08486
105 3 5.23456 6.57406 0.802706
109 3 6.47371 8.86436 0.867522
221 3 7.81124 6.45365 5.21864
201 3 5.10123 6.45138 5.13476
205 3 6.5136 8.85888 5.26472
277 3 5.18953 8.09101 7.46317
249 3 7.86023 8.10213 7.3579
297 3 5.11911 6.44309 9.47999
301 3 6.47175 8.81218 9.5437
317 3 7.82842 6.45148 9.33921
48 1 6.51741 7.97116 12.3773
96 2 7.67023 6.54766 12.9453
81 2 6.33926 8.79169 11.8417
26 1 5.46283 9.06576 12.0194
40 1 8.02137 6.37145 12.0754
185 3 6.39128 10.356 3.01339
142 3 5.10281 11.1795 1.09534
113 3 7.7894 11.2255 1.03381
209 3 7.79744 11.1879 5.26467
238 3 5.19018 11.2207 5.27001
281 3 6.46797 10.3936 7.40402
305 3 7.87732 11.1129 9.52051
334 3 5.20435 11.0746 9.51455
74 2 7.86048 11.0457 11.9853
33 1 7.20755 10.2366 12.1216
122 3 6.46725 13.5282 0.993542
190 3 7.77509 12.6539 3.11362
166 3 5.08492 12.8645 3.11683
150 3 6.43998 15.0549 3.06656
218 3 6.54797 13.599 5.31453
285 3 7.84993 12.7065 7.46289
262 3 5.10216 12.7635 7.42652
246 3 6.43421 15.0654 7.40652
314 3 6.43647 13.5028 9.45674
25 1 4.76271 13.3624 11.9408
93 2 6.43061 13.3983 11.9179
49 1 7.22942 14.2298 12.0614
12 1 6.8376 12.6671 12.0771
126 3 7.78206 15.8202 0.944578
154 3 7.80551 17.3997 2.99931
182 3 5.15342 17.4543 3.06509
106 3 5.04543 15.8532 0.929342
110 3 6.37923 18.1996 0.969656
222 3 7.84794 15.8362 5.17116
202 3 5.12956 15.8502 5.23599
206 3 6.44662 18.1725 5.21094
250 3 7.81542 17.3364 7.33054
278 3 5.12571 17.3594 7.33592
318 3 7.79546 15.8086 9.5651
298 3 5.09433 15.8965 9.38557
302 3 6.52018 18.2203 9.52638
14 1 7.39519 16.411 12.5512
65 2 7.86438 15.6414 12.2058
59 1 4.61336 18.3405 12.201
68 2 6.71601 18.5569 12.6488
135 3 10.4886 1.74456 0.992
179 3 11.9051 0.974164 2.98433
159 3 9.16067 1.09811 3.06189
231 3 10.5656 1.80605 5.11967
275 3 11.78 1.02362 7.27478
254 3 9.07287 1.06067 7.33566
327 3 10.4308 1.76191 9.40156
19 1 9.56536 1.32155 12.0386
13 1 10.368 2.59403 12.0292
89 2 10.3295 1.59972 11.7615
139 3 11.8903 4.21206 0.882337
163 3 10.4836 3.29659 2.95495
100 3 9.0038 4.21927 1.03047
172 3 9.10112 5.74753 3.02976
148 3 11.8342 5.76163 2.99886
235 3 11.8161 4.16509 5.19294
196 3 9.17798 4.14879 5.21606
244 3 11.8991 5.64938 7.38094
265 3 9.12364 5.71207 7.37161
259 3 10.5586 3.40331 7.38197
291 3 9.04521 4.17983 9.46497
331 3 11.7864 4.1129 9.40883
43 1 9.28187 4.07264 13.0518
75 2 10.1659 4.20713 12.7188
32 1 10.1786 4.54231 11.69
2 1 12.0862 4.09268 13.2869
120 3 10.4188 6.51327 0.950645
176 3 10.4578 8.05426 3.04284
104 3 11.8749 8.85836 1.01113
132 3 9.25389 8.87825 0.934625
216 3 10.5004 6.53 5.19726
200 3 11.9359 8.87643 5.09748
228 3 9.11623 8.84656 5.16389
272 3 10.5352 8.08607 7.28724
312 3 10.4792 6.48913 9.40587
296 3 11.9031 8.80152 9.44638
324 3 9.25396 8.82775 9.39327
52 1 9.75305 7.66335 12.9713
70 2 10.4231 7.58067 12.3366
23 1 9.84417 7.82354 11.3785
41 1 11.987 6.87708 12.0802
136 3 10.4498 11.2212 1.03057
180 3 11.9157 10.4346 3.0377
160 3 9.18238 10.3367 3.07274
232 3 10.5207 11.15 5.22052
276 3 11.9186 10.4348 7.34399
253 3 9.2219 10.3974 7.37904
328 3 10.5091 11.084 9.47598
45 1 11.5232 10.5491 13.0377
28 1 8.79001 10.933 12.3035
84 2 10.7504 11.2227 12.7217
15 1 10.8316 11.1182 11.6793
140 3 11.8476 13.6034 1.04747
164 3 10.5425 12.6438 3.08805
99 3 9.1962 13.4832 1.01057
171 3 9.18456 14.9856 3.16947
147 3 11.8692 15.0514 3.0821
236 3 11.9215 13.5649 5.15381
195 3 9.25904 13.4971 5.26411
260 3 10.4957 12.6918 7.45721
266 3 9.20402 15.0596 7.42726
243 3 11.8012 15.0782 7.38707
292 3 9.16281 13.5386 9.48285
332 3 11.8654 13.5267 9.44201
18 1 11.6124 14.552 12.1711
76 2 11.9052 13.6512 11.9039
53 1 11.6358 12.8016 12.4514
62 1 8.9391 15.5252 12.3564
119 3 10.5224 15.7689 1.01946
175 3 10.5428 17.3473 3.04709
131 3 8.93878 18.21 1.03913
103 3 11.8447 18.165 0.904858
215 3 10.491 15.9317 5.22098
227 3 9.10315 18.2046 5.26395
199 3 11.8676 18.1796 5.16423
271 3 10.4611 17.4026 7.32271
311 3 10.4682 15.8935 9.47544
323 3 9.12066 18.0886 9.48611
295 3 11.8205 18.2274 9.45622
87 2 11.2611 16.1067 12.8277
7 1 11.4203 16.7528 11.9895
4 1 11.6578 16.4598 13.6306
151 3 14.5001 1.17371 3.08926
107 3 13.127 1.7873 0.969303
127 3 15.9034 1.8327 0.973499
223 3 15.8873 1.84507 5.23458
203 3 13.1547 1.90127 5.19877
247 3 14.5415 0.977624 7.29564
299 3 13.3107 1.72228 9.47698
319 3 15.8525 1.83144 9.44632
78 2 15.3245 1.15073 12.6849
24 1 14.9293 1.54276 11.8081
30 1 16.0368 0.499289 12.3212
111 3 14.442 4.18799 0.885539
155 3 15.8473 3.41747 3.02118
183 3 13.2261 3.52477 3.01207
187 3 14.5957 5.79422 2.99402
207 3 14.5274 4.22394 5.23723
283 3 14.5063 5.65945 7.29631
279 3 13.258 3.34326 7.39345
251 3 15.9086 3.41721 7.40737
303 3 14.4446 4.08689 9.51846
46 1 12.9099 5.82977 12.3632
91 2 12.9941 4.18925 12.9883
55 1 13.2923 3.62755 12.2291
63 1 15.8111 3.45159 13.2304
115 3 15.8312 6.53315 0.953305
192 3 15.8501 8.07152 3.00076
168 3 13.2307 8.00266 3.00634
144 3 13.1383 6.53426 0.924126
124 3 14.4909 8.90933 0.977787
211 3 15.9533 6.56551 5.19004
240 3 13.1513 6.41455 5.18586
220 3 14.5094 8.74758 5.17634
287 3 15.9015 8.12946 7.25817
264 3 13.2259 8.02054 7.28004
307 3 15.8091 6.4956 9.36538
336 3 13.2696 6.45897 9.52048
316 3 14.5155 8.77862 9.38669
29 1 15.8364 8.08805 12.6869
77 2 13.0039 6.62457 11.8623
10 1 14.1494 8.19634 12.4755
86 2 14.991 8.59225 12.677
128 3 15.8991 11.2358 0.884244
152 3 14.5171 10.4272 3.00916
108 3 13.2258 11.2184 0.958662
224 3 15.9342 11.271 5.12484
204 3 13.2629 11.2653 5.26276
248 3 14.5635 10.42 7.33847
300 3 13.1905 11.2532 9.35175
320 3 15.8628 11.1548 9.43862
5 1 12.8942 9.90837 10.4498
79 2 15.89 10.7038 11.6481
57 1 15.4433 9.88406 11.7514
112 3 14.6093 13.5481 0.978356
156 3 15.864 12.7802 3.01766
184 3 13.2381 12.7373 3.1056
188 3 14.5547 15.0607 2.93588
208 3 14.5805 13.5267 5.21599
280 3 13.1265 12.7746 7.29263
284 3 14.4759 15.1161 7.29057
252 3 15.8429 12.7546 7.34062
304 3 14.5449 13.4867 9.39608
88 2 14.5308 13.4696 11.8565
6 1 13.5816 13.4636 11.911
37 1 15.5275 14.903 12.1268
39 1 15.0202 12.6132 11.9181
116 3 15.9815 15.8998 0.946118
191 3 15.8603 17.4215 3.02516
167 3 13.1802 17.4014 2.91767
143 3 13.1831 15.8711 0.953834
123 3 14.6519 18.2082 0.847511
212 3 15.9147 15.8717 5.13445
239 3 13.2218 15.863 5.12979
219 3 14.5377 18.1607 5.15438
288 3 15.8716 17.3795 7.30876
263 3 13.1086 17.3743 7.41851
308 3 15.9225 15.7869 9.42803
335 3 13.0871 15.9044 9.44422
315 3 14.4678 18.174 9.40158
61 1 13.3331 17.5524 12.1509
64 1 15.3399 16.3351 12.0835
82 2 13.8747 17.4687 12.9975
72 2 15.9765 15.751 11.8319
51 1 14.1299 18.4005 13.2187
