ITEM: TIMESTEP
120000000
ITEM: NUMBER OF ATOMS
336
ITEM: BOX BOUNDS pp pp pp
0.0000000000000000e+00 1.6167135238600000e+01
0.0000000000000000e+00 1.8668199539200000e+01
0.0000000000000000e+00 2.5747400283800001e+01
ITEM: ATOMS id type x y z
117 3 2.51191 1.9142 1.07071
145 3 3.71307 1.18454 3.14429
169 3 1.09396 1.1213 2.9986
213 3 2.44317 1.81387 5.22503
241 3 3.77654 1.06531 7.35517
267 3 0.966852 1.06728 7.36637
309 3 2.34931 1.85202 9.42554
35 1 2.61166 2.69947 11.532
3 1 3.11755 0.367062 12.2503
66 2 2.64378 2.37547 12.6061
8 1 1.9172 2.87702 12.5926
60 1 3.89528 2.37065 13.3506
101 3 3.67087 4.20118 0.980022
173 3 2.35028 3.45408 3.14562
129 3 1.10224 4.1829 0.923915
157 3 1.00658 5.74267 3.07714
177 3 3.7743 5.7171 3.07515
225 3 0.922586 4.1923 5.24419
197 3 3.74241 4.24868 5.23951
255 3 1.06914 5.76986 7.31011
273 3 3.79969 5.67992 7.34072
269 3 2.41548 3.37966 7.39052
321 3 1.00713 4.22987 9.54708
293 3 3.66613 4.09868 9.49804
56 1 0.588635 5.47787 12.7383
71 2 0.23778 3.93455 12.6355
20 1 3.62687 5.62634 11.8599
21 1 0.176714 3.98011 11.743
1 1 3.16392 4.13447 16.8303
69 2 3.81518 4.25236 16.0968
58 1 3.94276 5.23232 16.3365
133 3 2.37779 6.51513 0.968491
161 3 2.5071 7.9972 2.98364
137 3 3.73614 8.90611 1.01474
98 3 1.10164 8.89371 0.947148
229 3 2.4343 6.52653 5.18664
233 3 3.88512 8.77946 5.25175
194 3 1.12829 8.91344 5.24208
257 3 2.41412 8.05219 7.32655
325 3 2.48495 6.44328 9.37037
289 3 1.00414 8.71577 9.35384
329 3 3.73437 8.74499 9.54552
11 1 0.864455 6.58477 11.8022
73 2 3.69443 6.35893 12.6537
27 1 3.52704 8.23078 12.1039
80 2 0.940621 6.44998 12.6991
83 2 3.83693 9.13361 11.6387
42 1 2.54887 6.37629 13.0115
118 3 2.49645 11.2269 1.0514
146 3 3.73793 10.4031 3.11469
170 3 1.0188 10.4462 3.01247
214 3 2.43897 11.2527 5.11957
268 3 1.04816 10.4054 7.27793
242 3 3.81479 10.3578 7.41641
310 3 2.36637 11.1408 9.34222
16 1 0.817087 10.8605 11.7325
85 2 2.28455 11.0883 11.6262
31 1 3.04167 9.93121 11.7508
17 1 2.75639 11.9357 11.4468
102 3 3.83732 13.5838 0.938896
174 3 2.4012 12.7886 3.07201
130 3 1.14618 13.582 0.995244
158 3 1.0354 15.1717 2.89864
178 3 3.75246 15.1303 2.99001
198 3 3.77811 13.4863 5.28711
226 3 1.11374 13.5468 5.14823
270 3 2.36955 12.7633 7.28447
274 3 3.75834 15.0675 7.35201
256 3 1.02875 15.0097 7.32176
322 3 1.01542 13.5022 9.28846
294 3 3.82194 13.4784 9.4849
38 1 3.48359 14.2411 11.9161
92 2 3.77094 13.4088 11.7939
134 3 2.36298 15.9861 0.968448
162 3 2.44383 17.5324 3.00037
138 3 3.81648 18.2157 1.01845
97 3 1.11192 18.233 0.831581
230 3 2.42919 15.8249 5.0984
193 3 1.11233 18.1804 5.12898
234 3 3.6817 18.1992 5.19403
258 3 2.41303 17.3855 7.39606
326 3 2.42151 15.7818 9.38297
290 3 1.02102 18.0664 9.44455
330 3 3.82429 18.1478 9.39452
36 1 2.84144 16.8351 12.0096
94 2 3.68836 18.2146 11.9232
67 2 2.45013 15.7314 11.8243
34 1 1.41601 15.6917 12.1264
114 3 7.65124 1.80596 0.94188
186 3 6.41274 1.06526 3.07426
141 3 5.16677 1.88386 0.990143
210 3 7.76667 1.87082 5.29015
237 3 5.09903 1.94079 5.28529
282 3 6.44858 1.0201 7.45536
333 3 5.06237 1.87176 9.38435
306 3 7.78437 1.82411 9.50458
50 1 4.55195 3.1107 14.4511
22 1 6.55574 2.96429 13.2661
90 2 4.78547 2.3205 13.9574
44 1 6.77555 0.8408 12.8718
121 3 6.46672 4.17176 0.861644
189 3 7.77543 3.4557 3.03349
165 3 5.11046 3.36035 3.11986
149 3 6.35417 5.77288 3.02515
217 3 6.49356 4.22415 5.18649
261 3 5.12679 3.46902 7.30866
245 3 6.44714 5.71949 7.30865
286 3 7.73283 3.37668 7.43093
313 3 6.42285 4.2061 9.48103
54 1 7.51414 5.38313 13.2207
95 2 7.34992 3.30721 12.8566
9 1 7.21354 3.17663 11.9451
153 3 7.78953 8.07871 2.9665
181 3 5.09386 8.07957 3.08406
105 3 5.23417 6.57333 0.795095
109 3 6.46034 8.85814 0.875343
125 3 7.77797 6.4919 0.865563
221 3 7.81187 6.45101 5.2149
201 3 5.10701 6.4486 5.14871
205 3 6.50878 8.85166 5.2595
249 3 7.87793 8.11353 7.35117
277 3 5.1875 8.08132 7.44999
317 3 7.83204 6.43575 9.33832
297 3 5.11681 6.44886 9.48137
301 3 6.48113 8.81048 9.52416
96 2 7.66257 6.58264 12.9454
48 1 6.54189 7.96978 12.3742
81 2 6.34343 8.79315 11.8401
26 1 5.38705 9.03568 11.9765
185 3 6.39641 10.3474 3.00803
142 3 5.11058 11.195 1.09871
113 3 7.79661 11.2187 1.0331
209 3 7.79613 11.1936 5.26607
238 3 5.19731 11.2127 5.26223
281 3 6.46627 10.4085 7.40883
334 3 5.21029 11.0745 9.51025
305 3 7.86961 11.1264 9.54338
33 1 7.21977 10.2601 12.2689
74 2 7.8377 11.0284 11.9562
122 3 6.4674 13.5257 1.00973
190 3 7.78296 12.6526 3.08924
166 3 5.05664 12.8646 3.11188
150 3 6.4408 15.0495 3.07142
218 3 6.54765 13.6134 5.31319
262 3 5.09496 12.7653 7.44903
285 3 7.86533 12.7155 7.47225
246 3 6.43557 15.0685 7.4003
314 3 6.41947 13.4991 9.45566
25 1 4.82732 13.3266 11.9034
49 1 7.16788 14.225 12.2065
93 2 6.39098 13.384 11.9075
12 1 6.84994 12.5723 12.1222
126 3 7.78369 15.8371 0.969728
154 3 7.82293 17.3917 3.0059
182 3 5.13856 17.4604 3.07965
106 3 5.03514 15.8436 0.928618
110 3 6.39313 18.1949 0.954224
222 3 7.84664 15.8387 5.1751
202 3 5.14334 15.8425 5.23854
206 3 6.44307 18.1763 5.21711
250 3 7.81481 17.331 7.33811
278 3 5.11487 17.3621 7.34361
318 3 7.79678 15.8213 9.54545
298 3 5.0671 15.898 9.37208
302 3 6.52072 18.2344 9.52195
65 2 7.84692 15.6614 12.2172
14 1 7.43194 16.4754 12.5708
68 2 6.70187 18.5815 12.6198
47 1 7.31851 18.6268 11.8975
59 1 4.57297 18.3797 12.1534
135 3 10.4741 1.73853 1.00567
179 3 11.9171 0.986563 2.97912
159 3 9.17033 1.09557 3.05861
231 3 10.5688 1.81892 5.12858
275 3 11.7828 1.01938 7.29064
254 3 9.08968 1.07137 7.34143
327 3 10.4272 1.74927 9.39402
19 1 9.60734 1.19867 12.1638
13 1 10.3794 2.53389 12.0133
89 2 10.3373 1.56805 11.7846
139 3 11.8878 4.20544 0.878696
163 3 10.4839 3.29598 2.96048
100 3 8.99546 4.22553 1.03617
172 3 9.10842 5.7373 3.03136
148 3 11.8212 5.76881 3.0081
235 3 11.81 4.15706 5.2047
196 3 9.18464 4.1564 5.20909
244 3 11.8854 5.65665 7.39205
265 3 9.12544 5.70901 7.36607
259 3 10.5491 3.39494 7.39326
331 3 11.7827 4.11491 9.41449
291 3 9.06174 4.17669 9.46436
43 1 9.31741 4.10714 12.9501
75 2 10.1785 4.1852 12.7079
32 1 9.92587 4.61991 11.7175
120 3 10.4279 6.49552 0.94721
176 3 10.4396 8.06662 3.05389
104 3 11.8663 8.84405 0.996742
132 3 9.26489 8.88259 0.921828
216 3 10.4901 6.52235 5.18984
200 3 11.9372 8.86499 5.09216
228 3 9.10485 8.85119 5.15265
272 3 10.5318 8.08476 7.28982
312 3 10.4805 6.49409 9.42087
324 3 9.24863 8.82654 9.40962
296 3 11.8882 8.80723 9.43917
52 1 9.79519 7.47799 12.9183
70 2 10.4533 7.57225 12.3062
23 1 9.96242 7.83278 11.4028
40 1 8.23457 6.36884 12.1345
41 1 11.9651 6.81587 12.0285
136 3 10.4369 11.2224 1.01616
180 3 11.93 10.4367 3.03534
160 3 9.18544 10.3385 3.07847
232 3 10.5203 11.1405 5.21623
276 3 11.9086 10.4296 7.34078
253 3 9.20491 10.3833 7.36262
328 3 10.5048 11.0762 9.45936
45 1 11.5581 10.5587 12.9446
28 1 8.74774 11.0313 12.2351
84 2 10.7647 11.1738 12.6886
15 1 10.8518 11.1443 11.6967
140 3 11.8379 13.6062 1.04108
164 3 10.5431 12.6478 3.08309
99 3 9.207 13.486 1.01654
147 3 11.8688 15.0355 3.08081
171 3 9.19154 15.0015 3.17168
236 3 11.9075 13.5491 5.15872
195 3 9.2695 13.4732 5.27147
260 3 10.5008 12.6759 7.4543
266 3 9.19993 15.0419 7.4209
243 3 11.7959 15.0923 7.39803
292 3 9.16852 13.5364 9.48517
332 3 11.857 13.521 9.44806
76 2 11.9101 13.6423 11.9256
18 1 11.6402 14.4939 12.2646
53 1 11.5896 12.7877 12.5677
62 1 8.93317 15.5329 12.4212
119 3 10.5129 15.7673 1.02997
175 3 10.567 17.3486 3.01933
131 3 8.94247 18.2151 1.03451
103 3 11.8533 18.1668 0.907056
215 3 10.498 15.9266 5.22799
199 3 11.8667 18.1836 5.16579
227 3 9.09273 18.2148 5.25938
271 3 10.4897 17.4094 7.31605
311 3 10.4654 15.8953 9.47877
323 3 9.12636 18.0881 9.47049
295 3 11.8242 18.2143 9.46171
87 2 11.2687 16.1283 12.8255
7 1 11.3714 16.8313 12.0134
4 1 11.6342 16.4937 13.6401
151 3 14.5278 1.16554 3.08093
107 3 13.1332 1.78773 0.967998
127 3 15.9099 1.82594 0.973357
223 3 15.8781 1.84974 5.21861
203 3 13.1521 1.90086 5.19374
247 3 14.5418 0.974548 7.29937
299 3 13.2893 1.7256 9.45987
319 3 15.8503 1.82968 9.43921
78 2 15.3197 1.1484 12.6408
24 1 14.8483 1.4411 11.7962
30 1 16.1546 0.549345 12.3109
111 3 14.4443 4.18614 0.886944
155 3 15.8529 3.41859 3.03209
183 3 13.2335 3.53413 2.99444
187 3 14.602 5.79212 3.00708
207 3 14.5274 4.22996 5.23953
283 3 14.5004 5.66848 7.31132
279 3 13.2539 3.3285 7.40976
251 3 15.917 3.39275 7.4167
303 3 14.4563 4.0882 9.5265
46 1 12.961 5.88205 12.4048
55 1 13.1269 3.77493 12.1795
91 2 13.0065 4.21451 12.9616
63 1 15.959 3.44101 13.2487
2 1 12.1458 3.89438 13.386
115 3 15.8378 6.52285 0.951485
192 3 15.8742 8.06636 2.99696
168 3 13.2146 8.00186 3.01413
144 3 13.1461 6.54608 0.907202
124 3 14.4777 8.90514 0.986157
211 3 15.9584 6.56764 5.17727
240 3 13.1501 6.4076 5.19292
220 3 14.5168 8.75566 5.16769
287 3 15.9138 8.11374 7.26616
264 3 13.2151 8.01877 7.29062
336 3 13.274 6.46575 9.51499
307 3 15.8195 6.4748 9.36295
316 3 14.5085 8.79493 9.38104
29 1 15.8323 7.91091 12.7056
86 2 14.9591 8.59544 12.6797
77 2 12.9858 6.66891 11.8737
10 1 14.1332 8.13604 12.4278
128 3 15.9011 11.2535 0.869924
152 3 14.5205 10.4182 3.01939
108 3 13.253 11.2261 0.944176
224 3 15.9283 11.2502 5.11249
204 3 13.2669 11.2621 5.26729
248 3 14.5776 10.422 7.34166
300 3 13.1686 11.2436 9.34194
320 3 15.8644 11.1411 9.43578
5 1 12.8944 9.79412 10.4649
79 2 15.9307 10.7309 11.6372
57 1 15.5849 9.766 11.7199
112 3 14.6122 13.5301 0.969801
156 3 15.8709 12.7623 3.02739
184 3 13.2393 12.7292 3.10459
188 3 14.5563 15.0538 2.92658
208 3 14.5818 13.5265 5.22531
280 3 13.1313 12.7882 7.30902
284 3 14.48 15.1254 7.27878
252 3 15.8456 12.7346 7.34296
304 3 14.5364 13.4712 9.41648
88 2 14.5586 13.4411 11.8552
6 1 13.5391 13.3393 11.8472
37 1 15.6589 14.9159 12.1671
39 1 14.9699 12.5155 11.7065
116 3 15.9774 15.886 0.96465
191 3 15.8578 17.4256 3.03271
167 3 13.1971 17.4067 2.92612
143 3 13.1903 15.8616 0.945615
123 3 14.6737 18.2155 0.859684
212 3 15.914 15.8758 5.14838
239 3 13.2169 15.8681 5.14201
219 3 14.5466 18.1469 5.15514
288 3 15.8663 17.3806 7.30959
263 3 13.1312 17.3643 7.41372
335 3 13.0905 15.9027 9.42627
308 3 15.9197 15.787 9.41705
315 3 14.4635 18.1641 9.40415
64 1 15.3048 16.418 12.0156
61 1 13.4364 17.6486 12.1535
82 2 13.8791 17.4211 13.0068
72 2 16.0014 15.7825 11.8159
51 1 14.1462 18.2108 13.2687
